LAMMPS (15 Sep 2022)
OMP_NUM_THREADS environment is not set. Defaulting to 1 thread. (src/comm.cpp:98)
  using 1 OpenMP thread(s) per MPI task
# 3D WCA system, random initial configuration

# Parameter settings
variable initial_temperature equal 3.0
variable final_temperature equal 0.1
variable dt equal 0.01
variable tau equal 100*${dt}
variable tau equal 100*0.01
variable thermo_time equal 1000       # Ensure frequent DCD output for 3D case
variable equil_steps equal 50000
variable run_steps equal 100000

units           lj
atom_style      atomic
dimension       3                    # Change dimension to 3 for 3D simulation

# Define lattice and region
lattice         fcc ${density}       # Change lattice type to fcc
lattice         fcc 1.0       
Lattice spacing in x,y,z = 1.5874011 1.5874011 1.5874011
region          box block 0 8 0 8 0 8   # Set the region to be sized 8x8x8
create_box      1 box
Created orthogonal box = (0 0 0) to (12.699208 12.699208 12.699208)
  1 by 1 by 1 MPI processor grid
create_atoms    1 box
Created 2048 atoms
  using lattice units in orthogonal box = (0 0 0) to (12.699208 12.699208 12.699208)
  create_atoms CPU = 0.000 seconds
mass 1 1.0

# Set initial velocity
velocity all create ${initial_temperature} 12345
velocity all create 3 12345

# Define interactions
pair_style      lj/cut 1.0
pair_coeff      1 1 10.0 0.89089871814 1.0
pair_modify shift yes

# Simulation parameters
timestep        ${dt}
timestep        0.01
thermo          ${thermo_time}
thermo          1000

# High-temperature equilibration phase
fix 1 all nvt temp ${initial_temperature} ${initial_temperature} ${tau}
fix 1 all nvt temp 3 ${initial_temperature} ${tau}
fix 1 all nvt temp 3 3 ${tau}
fix 1 all nvt temp 3 3 1
run ${equil_steps}
run 50000
Generated 0 of 0 mixed pair_coeff terms from geometric mixing rule
Neighbor list info ...
  update: every = 1 steps, delay = 0 steps, check = yes
  max neighbors/atom: 2000, page size: 100000
  master list distance cutoff = 1.3
  ghost atom cutoff = 1.3
  binsize = 0.65, bins = 20 20 20
  1 neighbor lists, perpetual/occasional/extra = 1 0 0
  (1) pair lj/cut, perpetual
      attributes: half, newton on
      pair build: half/bin/atomonly/newton
      stencil: half/bin/3d
      bin: standard
Per MPI rank memory allocation (min/avg/max) = 3.169 | 3.169 | 3.169 Mbytes
   Step          Temp          E_pair         E_mol          TotEng         Press     
         0   3              0              0              4.4978027      2.9985352    
      1000   3.0564449      1.8770021      0              6.4594308      26.120737    
      2000   3.0059263      1.8714539      0              6.3781416      25.898167    
      3000   3.057124       1.8582938      0              6.4417408      25.85964     
      4000   3.0843199      1.8182325      0              6.4424533      25.32654     
      5000   3.0319638      1.8107974      0              6.3565224      25.238336    
      6000   3.0915309      1.8641198      0              6.4991517      25.93691     
      7000   3.0424524      1.8861493      0              6.4475996      26.062243    
      8000   3.0453469      1.7377731      0              6.303563       24.804127    
      9000   3.0170683      1.7214979      0              6.2448906      24.513757    
     10000   2.9754946      1.6940996      0              6.1551621      24.292388    
     11000   2.9929912      1.8351415      0              6.3224361      25.387779    
     12000   2.9380462      1.7522291      0              6.1571465      24.705319    
     13000   3.0798972      1.8529187      0              6.4705086      25.712597    
     14000   2.9689401      1.8206726      0              6.2719083      25.36938     
     15000   3.0184481      1.7730843      0              6.2985456      24.941229    
     16000   3.0009923      1.8284533      0              6.3277437      25.17846     
     17000   2.9571327      1.7818309      0              6.2153641      25.164276    
     18000   2.9427063      1.7369702      0              6.1488744      24.588264    
     19000   3.0128857      1.8069624      0              6.3240843      25.179552    
     20000   2.9844592      1.959726       0              6.4342288      26.621362    
     21000   2.9958463      1.6998839      0              6.1914591      24.293415    
     22000   3.0769469      1.714003       0              6.3271698      24.586009    
     23000   3.0636985      1.7083691      0              6.3016729      24.45657     
     24000   3.0199394      1.8104079      0              6.3381051      25.390067    
     25000   3.0093598      1.7789819      0              6.2908175      25.128303    
     26000   2.9373921      1.7846891      0              6.1886258      25.199899    
     27000   2.9561852      1.8128156      0              6.2449282      25.41973     
     28000   3.0556174      1.9328849      0              6.514073       26.518403    
     29000   3.0466271      1.7447176      0              6.3124268      24.719042    
     30000   2.9651168      1.8526695      0              6.2981729      25.667242    
     31000   2.9642721      1.8354646      0              6.2797017      25.626578    
     32000   2.9666374      1.8595272      0              6.3073104      25.482584    
     33000   3.0819461      1.857256       0              6.4779179      25.671008    
     34000   3.0052627      1.8080663      0              6.3137592      25.349284    
     35000   3.0642001      1.7782315      0              6.3722873      24.87295     
     36000   3.0324835      1.80641        0              6.3529142      25.393035    
     37000   2.9586914      1.8587463      0              6.2946164      25.675258    
     38000   2.9637547      1.7489851      0              6.1924465      24.965003    
     39000   3.0214722      1.7589473      0              6.2889426      24.888668    
     40000   3.0973665      1.7732396      0              6.4170207      25.251203    
     41000   3.0262644      1.7518144      0              6.2889946      24.778008    
     42000   3.0469929      1.7570489      0              6.3253066      24.974771    
     43000   2.9228865      1.9087117      0              6.2909006      26.02923     
     44000   2.9883824      1.7296913      0              6.2100762      24.725713    
     45000   2.984752       1.8199267      0              6.2948686      25.153474    
     46000   2.9723154      1.9120367      0              6.3683328      26.214717    
     47000   3.0123581      1.7792265      0              6.2955574      24.954166    
     48000   3.0609532      1.7615714      0              6.3507592      24.826877    
     49000   3.0333724      1.6834516      0              6.2312885      24.179272    
     50000   2.956499       1.7539144      0              6.1864975      24.615525    
Loop time of 28.4619 on 1 procs for 50000 steps with 2048 atoms

Performance: 1517817.928 tau/day, 1756.734 timesteps/s, 3.598 Matom-step/s
99.8% CPU use with 1 MPI tasks x 1 OpenMP threads

MPI task timing breakdown:
Section |  min time  |  avg time  |  max time  |%varavg| %total
---------------------------------------------------------------
Pair    | 5.1008     | 5.1008     | 5.1008     |   0.0 | 17.92
Neigh   | 20.373     | 20.373     | 20.373     |   0.0 | 71.58
Comm    | 1.2097     | 1.2097     | 1.2097     |   0.0 |  4.25
Output  | 0.0010181  | 0.0010181  | 0.0010181  |   0.0 |  0.00
Modify  | 1.2703     | 1.2703     | 1.2703     |   0.0 |  4.46
Other   |            | 0.507      |            |       |  1.78

Nlocal:           2048 ave        2048 max        2048 min
Histogram: 1 0 0 0 0 0 0 0 0 0
Nghost:           1549 ave        1549 max        1549 min
Histogram: 1 0 0 0 0 0 0 0 0 0
Neighs:           9846 ave        9846 max        9846 min
Histogram: 1 0 0 0 0 0 0 0 0 0

Total # of neighbors = 9846
Ave neighs/atom = 4.8076172
Neighbor list builds = 20233
Dangerous builds = 2
unfix 1

# Dump settings for trajectory output
# Output the trajectory information for cooling phase in DCD format, unique file for each density
dump            1 all dcd ${thermo_time} 3dWCA_density_${density}.dcd
dump            1 all dcd 1000 3dWCA_density_${density}.dcd
dump            1 all dcd 1000 3dWCA_density_1.0.dcd
dump_modify     1 unwrap yes

# Cooling phase, gradually lowering temperature to final_temperature
fix 1 all nvt temp ${initial_temperature} ${final_temperature} ${tau}
fix 1 all nvt temp 3 ${final_temperature} ${tau}
fix 1 all nvt temp 3 0.1 ${tau}
fix 1 all nvt temp 3 0.1 1
run ${run_steps}
run 100000
Generated 0 of 0 mixed pair_coeff terms from geometric mixing rule
Per MPI rank memory allocation (min/avg/max) = 3.311 | 3.311 | 3.311 Mbytes
   Step          Temp          E_pair         E_mol          TotEng         Press     
     50000   2.956499       1.7539144      0              6.1864975      24.615525    
     51000   2.9138717      1.7848924      0              6.1535658      24.881982    
     52000   2.8688657      1.7439305      0              6.0451278      24.732646    
     53000   2.884471       1.817505       0              6.1420989      25.5045      
     54000   2.945201       1.7532363      0              6.1688806      24.897139    
     55000   2.8995373      1.6349078      0              5.9820901      23.7829      
     56000   2.8091723      1.6778439      0              5.8895448      23.978863    
     57000   2.8354142      1.6025751      0              5.8536197      23.421865    
     58000   2.7852698      1.5734498      0              5.7493144      23.079693    
     59000   2.7209157      1.6090159      0              5.6883965      23.325513    
     60000   2.6606583      1.603303       0              5.5923417      22.881023    
     61000   2.7717291      1.6279792      0              5.7835427      23.548003    
     62000   2.6233687      1.632566       0              5.5656976      23.300335    
     63000   2.5681024      1.5807703      0              5.431043       22.903426    
     64000   2.6035801      1.4720773      0              5.3755405      21.758305    
     65000   2.5826806      1.4092874      0              5.2814167      21.405618    
     66000   2.5253809      1.406092       0              5.1923137      21.430993    
     67000   2.5135119      1.4771017      0              5.2455286      21.730204    
     68000   2.5580513      1.4305775      0              5.2657809      21.459218    
     69000   2.4996047      1.5283076      0              5.2758839      22.468841    
     70000   2.4262328      1.4205371      0              5.0581092      21.118586    
     71000   2.3179814      1.4574249      0              4.9326992      21.471278    
     72000   2.323356       1.4588141      0              4.9421465      21.420366    
     73000   2.2979177      1.3726848      0              4.8178783      20.651596    
     74000   2.2611863      1.3268177      0              4.7169411      20.51232     
     75000   2.2341315      1.3308782      0              4.6804392      20.245111    
     76000   2.2396651      1.3869897      0              4.744847       20.828267    
     77000   2.2000961      1.2745399      0              4.5730727      19.601685    
     78000   2.1913371      1.2451523      0              4.530553       19.459147    
     79000   2.1672766      1.2116192      0              4.4609468      18.909308    
     80000   2.135593       1.1903865      0              4.3922118      18.889795    
     81000   2.0771936      1.205272       0              4.319541       18.66109     
     82000   2.1235302      1.2630311      0              4.446771       19.557835    
     83000   1.998943       1.1573392      0              4.1542897      18.14434     
     84000   2.051949       1.1893683      0              4.2657888      18.587408    
     85000   1.9935615      1.1385624      0              4.1274446      17.998948    
     86000   1.9331955      1.1192301      0              4.0176073      17.956415    
     87000   1.9299016      1.0895784      0              3.9830173      17.44855     
     88000   1.9152195      1.052629       0              3.9240555      17.259641    
     89000   1.8917895      1.055839       0              3.8921376      17.23111     
     90000   1.8259389      1.0222851      0              3.7598561      16.69006     
     91000   1.8064285      1.0115082      0              3.7198279      16.817368    
     92000   1.8360561      1.0035825      0              3.7563219      16.70571     
     93000   1.7499545      1.0187543      0              3.6424043      16.707378    
     94000   1.6986511      0.93301209     0              3.4797446      15.821733    
     95000   1.6380551      0.93275879     0              3.3886416      15.95897     
     96000   1.6083427      0.92482289     0              3.336159       15.625027    
     97000   1.5764435      0.8914896      0              3.2550002      15.255883    
     98000   1.6025016      0.90704289     0              3.3096216      15.608691    
     99000   1.5866874      0.85503118     0              3.2339002      14.690224    
    100000   1.5240278      0.85197591     0              3.1369014      14.705516    
    101000   1.5027344      0.81629132     0              3.0692923      14.28499     
    102000   1.4437571      0.84783079     0              3.0124091      14.536677    
    103000   1.4728048      0.78801083     0              2.9961393      13.948842    
    104000   1.4449598      0.76836596     0              2.9347473      13.64284     
    105000   1.4107094      0.67776038     0              2.7927913      12.678166    
    106000   1.382829       0.70685374     0              2.7800845      12.967699    
    107000   1.3946527      0.74117335     0              2.8321309      13.401165    
    108000   1.3111266      0.76024524     0              2.7259749      13.495152    
    109000   1.3046225      0.65006667     0              2.6060448      12.399251    
    110000   1.2541361      0.69334017     0              2.5736258      12.673495    
    111000   1.2547381      0.65672178     0              2.5379099      12.313264    
    112000   1.1993424      0.62999896     0              2.4281341      11.873578    
    113000   1.1836011      0.61583858     0              2.3903734      11.804314    
    114000   1.1634812      0.61098777     0              2.3553575      11.627816    
    115000   1.1269555      0.57202165     0              2.2616294      11.135555    
    116000   1.0732294      0.57934181     0              2.1883999      11.251687    
    117000   1.0662642      0.55068083     0              2.1492962      10.827294    
    118000   1.0237034      0.53491448     0              2.0697198      10.562826    
    119000   1.0263339      0.50868812     0              2.0474372      10.313936    
    120000   0.96288699     0.52442312     0              1.9680484      10.490151    
    121000   0.94077672     0.46236015     0              1.8728362      9.6041576    
    122000   0.88297229     0.49024017     0              1.8140519      9.8190161    
    123000   0.88717338     0.42654255     0              1.7566528      9.1641675    
    124000   0.8519761      0.41496501     0              1.6923051      8.82255      
    125000   0.83976795     0.39986888     0              1.6589057      8.6417527    
    126000   0.80175345     0.38852045     0              1.5905634      8.5355512    
    127000   0.77114013     0.35561479     0              1.5117602      8.0692581    
    128000   0.72770947     0.35163474     0              1.4426659      7.8389559    
    129000   0.71240353     0.34510036     0              1.4131839      7.7083082    
    130000   0.69519485     0.32036643     0              1.3626495      7.4164715    
    131000   0.6447678      0.32388117     0              1.2905606      7.5309691    
    132000   0.61222752     0.27727629     0              1.1951692      6.6736975    
    133000   0.58976833     0.26119174     0              1.1454123      6.4658818    
    134000   0.57922728     0.24195363     0              1.1103703      6.1940018    
    135000   0.55170979     0.22401521     0              1.0511758      5.8704717    
    136000   0.51897043     0.22907449     0              1.00715        5.8507443    
    137000   0.48987384     0.20356534     0              0.9380173      5.3858844    
    138000   0.46688399     0.19540046     0              0.89538449     5.2356334    
    139000   0.41126792     0.17038022     0              0.78698088     4.8186609    
    140000   0.40560129     0.15909825     0              0.76720311     4.5738389    
    141000   0.37965887     0.14236366     0              0.71157389     4.2926235    
    142000   0.33345774     0.12954089     0              0.62948326     3.908065     
    143000   0.31559068     0.11512188     0              0.58827676     3.6760776    
    144000   0.28318361     0.09820498     0              0.52277298     3.3352746    
    145000   0.2477106      0.081806758    0              0.45319123     2.9391403    
    146000   0.22217239     0.074080115    0              0.40717597     2.6975015    
    147000   0.19422863     0.062787174    0              0.35398786     2.4955235    
    148000   0.15484844     0.048650549    0              0.28080979     1.9804332    
    149000   0.12952441     0.038785732    0              0.23297748     1.7620458    
    150000   0.10218115     0.024950575    0              0.17814745     1.2974793    
Loop time of 42.5963 on 1 procs for 100000 steps with 2048 atoms

Performance: 2028344.349 tau/day, 2347.621 timesteps/s, 4.808 Matom-step/s
99.8% CPU use with 1 MPI tasks x 1 OpenMP threads

MPI task timing breakdown:
Section |  min time  |  avg time  |  max time  |%varavg| %total
---------------------------------------------------------------
Pair    | 9.1357     | 9.1357     | 9.1357     |   0.0 | 21.45
Neigh   | 28.196     | 28.196     | 28.196     |   0.0 | 66.19
Comm    | 1.8372     | 1.8372     | 1.8372     |   0.0 |  4.31
Output  | 0.01067    | 0.01067    | 0.01067    |   0.0 |  0.03
Modify  | 2.5528     | 2.5528     | 2.5528     |   0.0 |  5.99
Other   |            | 0.8641     |            |       |  2.03

Nlocal:           2048 ave        2048 max        2048 min
Histogram: 1 0 0 0 0 0 0 0 0 0
Nghost:           1522 ave        1522 max        1522 min
Histogram: 1 0 0 0 0 0 0 0 0 0
Neighs:          10595 ave       10595 max       10595 min
Histogram: 1 0 0 0 0 0 0 0 0 0

Total # of neighbors = 10595
Ave neighs/atom = 5.1733398
Neighbor list builds = 28183
Dangerous builds = 0
unfix 1
undump 1
Total wall time: 0:01:11
