LAMMPS (15 Sep 2022)
OMP_NUM_THREADS environment is not set. Defaulting to 1 thread. (src/comm.cpp:98)
  using 1 OpenMP thread(s) per MPI task
# 3D WCA system, random initial configuration

# Parameter settings
variable initial_temperature equal 3.0
variable final_temperature equal 0.1
variable dt equal 0.01
variable tau equal 100*${dt}
variable tau equal 100*0.01
variable thermo_time equal 1000       # Ensure frequent DCD output for 3D case
variable equil_steps equal 50000
variable run_steps equal 100000

units           lj
atom_style      atomic
dimension       3                    # Change dimension to 3 for 3D simulation

# Define lattice and region
lattice         fcc ${density}       # Change lattice type to fcc
lattice         fcc 0.8       
Lattice spacing in x,y,z = 1.7099759 1.7099759 1.7099759
region          box block 0 8 0 8 0 8   # Set the region to be sized 8x8x8
create_box      1 box
Created orthogonal box = (0 0 0) to (13.679808 13.679808 13.679808)
  1 by 1 by 1 MPI processor grid
create_atoms    1 box
Created 2048 atoms
  using lattice units in orthogonal box = (0 0 0) to (13.679808 13.679808 13.679808)
  create_atoms CPU = 0.000 seconds
mass 1 1.0

# Set initial velocity
velocity all create ${initial_temperature} 12345
velocity all create 3 12345

# Define interactions
pair_style      lj/cut 1.0
pair_coeff      1 1 10.0 0.89089871814 1.0
pair_modify shift yes

# Simulation parameters
timestep        ${dt}
timestep        0.01
thermo          ${thermo_time}
thermo          1000

# High-temperature equilibration phase
fix 1 all nvt temp ${initial_temperature} ${initial_temperature} ${tau}
fix 1 all nvt temp 3 ${initial_temperature} ${tau}
fix 1 all nvt temp 3 3 ${tau}
fix 1 all nvt temp 3 3 1
run ${equil_steps}
run 50000
Generated 0 of 0 mixed pair_coeff terms from geometric mixing rule
Neighbor list info ...
  update: every = 1 steps, delay = 0 steps, check = yes
  max neighbors/atom: 2000, page size: 100000
  master list distance cutoff = 1.3
  ghost atom cutoff = 1.3
  binsize = 0.65, bins = 22 22 22
  1 neighbor lists, perpetual/occasional/extra = 1 0 0
  (1) pair lj/cut, perpetual
      attributes: half, newton on
      pair build: half/bin/atomonly/newton
      stencil: half/bin/3d
      bin: standard
Per MPI rank memory allocation (min/avg/max) = 3.184 | 3.184 | 3.184 Mbytes
   Step          Temp          E_pair         E_mol          TotEng         Press     
         0   3              0              0              4.4978027      2.3988281    
      1000   2.9870188      1.0033762      0              5.4817166      12.415484    
      2000   2.9517731      0.90546184     0              5.3309595      11.658712    
      3000   2.9111231      0.97016062     0              5.3347131      12.089759    
      4000   2.9708216      0.98977445     0              5.443831       12.497928    
      5000   3.0461168      0.87420712     0              5.4411513      11.551677    
      6000   2.9725067      0.96030289     0              5.4168858      12.047551    
      7000   2.9468197      1.0277565      0              5.4458277      12.546346    
      8000   3.0009684      0.98506537     0              5.48432        12.417507    
      9000   3.0906266      1.0544183      0              5.6880946      12.919476    
     10000   3.1226767      0.94405927     0              5.6257872      12.280792    
     11000   3.0619548      1.0019922      0              5.5926817      12.508085    
     12000   3.0143422      0.94556811     0              5.4648737      11.983823    
     13000   3.0081331      0.9868274      0              5.4968239      12.301907    
     14000   3.0747101      0.95909426     0              5.5689075      12.171729    
     15000   2.9246188      0.9430689      0              5.327855       12.016923    
     16000   2.9538501      0.99436183     0              5.4229735      12.479513    
     17000   2.9698017      0.91799331     0              5.3705207      11.940028    
     18000   2.9881175      0.988234       0              5.4682217      12.218142    
     19000   3.0584895      1.0114209      0              5.596915       12.576461    
     20000   3.0458173      0.95300796     0              5.5195031      12.03873     
     21000   2.997621       1.027496       0              5.5217319      12.65696     
     22000   3.0253693      1.0304577      0              5.5662958      12.682415    
     23000   3.0748737      0.96567665     0              5.5757351      12.199124    
     24000   3.048997       0.96507786     0              5.5363402      12.305757    
     25000   3.0179925      1.0207332      0              5.5455114      12.708021    
     26000   3.0456127      1.0253155      0              5.5915038      12.754713    
     27000   3.1011299      1.0026353      0              5.6520587      12.538629    
     28000   3.0558963      0.92036166     0              5.501968       12.044558    
     29000   3.042043       0.99803256     0              5.5588691      12.539496    
     30000   3.0397031      0.99648433     0              5.5538127      12.463916    
     31000   3.1179278      0.9752194      0              5.6498274      12.452288    
     32000   3.0525717      0.99993256     0              5.5765543      12.488248    
     33000   3.0028587      0.94810224     0              5.4501909      12.154795    
     34000   3.044785       0.92047626     0              5.4854237      11.903824    
     35000   2.9711852      1.0037218      0              5.4583235      12.540606    
     36000   2.9951465      0.97194794     0              5.462474       12.293494    
     37000   2.9717757      0.97695954     0              5.4324466      12.244261    
     38000   3.0034112      0.91129558     0              5.4142127      11.686307    
     39000   3.0248805      1.0397742      0              5.5748794      12.762393    
     40000   3.0759052      1.0277138      0              5.6393188      12.882214    
     41000   3.0129183      0.98294247     0              5.5001133      12.382699    
     42000   2.9985804      0.96721016     0              5.4628845      12.158127    
     43000   3.0246222      1.0050146      0              5.5397326      12.540115    
     44000   3.0416601      0.98462685     0              5.5448892      12.507105    
     45000   3.0600821      0.97405391     0              5.5619357      12.298043    
     46000   2.9979776      1.0428708      0              5.5376414      12.732778    
     47000   3.0496796      0.88348308     0              5.4557688      11.564866    
     48000   3.0430134      0.97624509     0              5.5385364      12.396479    
     49000   3.043254       0.95169997     0              5.514352       12.065677    
     50000   2.9747463      0.95789978     0              5.4178404      12.20428     
Loop time of 23.8646 on 1 procs for 50000 steps with 2048 atoms

Performance: 1810213.668 tau/day, 2095.155 timesteps/s, 4.291 Matom-step/s
99.8% CPU use with 1 MPI tasks x 1 OpenMP threads

MPI task timing breakdown:
Section |  min time  |  avg time  |  max time  |%varavg| %total
---------------------------------------------------------------
Pair    | 3.6372     | 3.6372     | 3.6372     |   0.0 | 15.24
Neigh   | 17.292     | 17.292     | 17.292     |   0.0 | 72.46
Comm    | 1.1574     | 1.1574     | 1.1574     |   0.0 |  4.85
Output  | 0.00099551 | 0.00099551 | 0.00099551 |   0.0 |  0.00
Modify  | 1.269      | 1.269      | 1.269      |   0.0 |  5.32
Other   |            | 0.5082     |            |       |  2.13

Nlocal:           2048 ave        2048 max        2048 min
Histogram: 1 0 0 0 0 0 0 0 0 0
Nghost:           1404 ave        1404 max        1404 min
Histogram: 1 0 0 0 0 0 0 0 0 0
Neighs:           7461 ave        7461 max        7461 min
Histogram: 1 0 0 0 0 0 0 0 0 0

Total # of neighbors = 7461
Ave neighs/atom = 3.6430664
Neighbor list builds = 20332
Dangerous builds = 0
unfix 1

# Dump settings for trajectory output
# Output the trajectory information for cooling phase in DCD format, unique file for each density
dump            1 all dcd ${thermo_time} 3dWCA_density_${density}.dcd
dump            1 all dcd 1000 3dWCA_density_${density}.dcd
dump            1 all dcd 1000 3dWCA_density_0.8.dcd
dump_modify     1 unwrap yes

# Cooling phase, gradually lowering temperature to final_temperature
fix 1 all nvt temp ${initial_temperature} ${final_temperature} ${tau}
fix 1 all nvt temp 3 ${final_temperature} ${tau}
fix 1 all nvt temp 3 0.1 ${tau}
fix 1 all nvt temp 3 0.1 1
run ${run_steps}
run 100000
Generated 0 of 0 mixed pair_coeff terms from geometric mixing rule
Per MPI rank memory allocation (min/avg/max) = 3.326 | 3.326 | 3.326 Mbytes
   Step          Temp          E_pair         E_mol          TotEng         Press     
     50000   2.9747463      0.95789978     0              5.4178404      12.20428     
     51000   3.0415983      0.9100377      0              5.4702075      11.997797    
     52000   2.9115529      0.94231381     0              5.3075106      12.111695    
     53000   2.8769684      0.85264608     0              5.1659915      11.329549    
     54000   2.9434057      0.93794716     0              5.3508999      11.828708    
     55000   2.8532481      0.91044846     0              5.1882309      11.558997    
     56000   2.7541067      0.8375374      0              4.9666803      11.11439     
     57000   2.7835671      0.89357824     0              5.0668901      11.581373    
     58000   2.7768685      0.82209725     0              4.9853662      11.019902    
     59000   2.7008413      0.89217594     0              4.9414597      11.357014    
     60000   2.7365366      0.8592556      0              4.9620562      11.173467    
     61000   2.7074739      0.87160387     0              4.9308316      11.384304    
     62000   2.6418031      0.79017535     0              4.7509451      10.567554    
     63000   2.5555949      0.88894776     0              4.7204684      11.430229    
     64000   2.6481311      0.85268003     0              4.8229371      11.206081    
     65000   2.5798853      0.80141515     0              4.6693535      10.598475    
     66000   2.5950122      0.82561735     0              4.7162349      10.923106    
     67000   2.5409483      0.79975348     0              4.6093149      10.58466     
     68000   2.5116304      0.79570465     0              4.5613106      10.538771    
     69000   2.3890647      0.79651438     0              4.3783616      10.493333    
     70000   2.4811164      0.69256314     0              4.4124205      9.7024091    
     71000   2.4425048      0.73326549     0              4.3952338      10.021545    
     72000   2.3125121      0.74933449     0              4.2164089      9.9929635    
     73000   2.2911096      0.73644625     0              4.1714327      9.8494558    
     74000   2.2855604      0.68753162     0              4.1141983      9.6161083    
     75000   2.2198195      0.67653004     0              4.0046334      9.4619282    
     76000   2.2448587      0.680648       0              4.0462919      9.3783106    
     77000   2.1918449      0.683292       0              3.969454       9.4751662    
     78000   2.1799425      0.65524006     0              3.9235571      9.1585709    
     79000   2.1454342      0.62536871     0              3.8419487      8.9203311    
     80000   2.1290846      0.64956277     0              3.8416302      9.1424714    
     81000   2.1538495      0.67075465     0              3.8999514      9.3506493    
     82000   2.0700766      0.66642989     0              3.7700286      9.1784564    
     83000   2.0643777      0.6366602      0              3.7317148      9.0349136    
     84000   2.0047838      0.61564565     0              3.621353       8.6663582    
     85000   1.9839655      0.59562979     0              3.570125       8.6014467    
     86000   1.9691397      0.57349491     0              3.5257623      8.3544209    
     87000   1.9560166      0.6517393      0              3.5843316      8.9365098    
     88000   1.9456215      0.54394158     0              3.4609489      8.1494893    
     89000   1.860537       0.62421426     0              3.413657       8.5825621    
     90000   1.8329046      0.57398734     0              3.3220018      8.2460659    
     91000   1.8199269      0.54965713     0              3.2782145      7.979708     
     92000   1.7651977      0.57626843     0              3.2227722      8.1947295    
     93000   1.8278993      0.52385784     0              3.264368       7.7568168    
     94000   1.6913599      0.56457836     0              3.1003795      8.0619358    
     95000   1.6779825      0.47072619     0              2.9864709      7.2701585    
     96000   1.6701118      0.47579629     0              2.9797408      7.2588677    
     97000   1.6933068      0.49007778     0              3.0287977      7.5214286    
     98000   1.6295082      0.47866638     0              2.9217353      7.3019543    
     99000   1.6548635      0.4756115      0              2.9566948      7.160498     
    100000   1.5840965      0.43639842     0              2.811383       6.8269328    
    101000   1.5309958      0.40721858     0              2.7025909      6.6078585    
    102000   1.4885324      0.43880167     0              2.6705101      6.8228229    
    103000   1.4551519      0.40931053     0              2.5909725      6.5249891    
    104000   1.4539178      0.35812838     0              2.5379402      6.0097436    
    105000   1.4285302      0.39712464     0              2.5388736      6.3558256    
    106000   1.3862396      0.3864742      0              2.4648183      6.2220918    
    107000   1.3633883      0.38418332     0              2.4282672      6.2165173    
    108000   1.3478633      0.41175946     0              2.4325672      6.4105939    
    109000   1.332856       0.32344658     0              2.3217544      5.6024504    
    110000   1.2919048      0.30003524     0              2.2369463      5.297094     
    111000   1.218013       0.33019573     0              2.1563232      5.5224831    
    112000   1.1747126      0.34919758     0              2.1104061      5.7459693    
    113000   1.1759876      0.34531416     0              2.1084342      5.6973314    
    114000   1.1488725      0.32045338     0              2.0429207      5.4510652    
    115000   1.1311239      0.30271414     0              1.9985716      5.3377549    
    116000   1.1098595      0.2740546      0              1.938031       4.989273     
    117000   1.0636194      0.30057192     0              1.895222       5.1943524    
    118000   1.059955       0.25994978     0              1.849106       4.7527414    
    119000   0.98072686     0.24839405     0              1.718766       4.5184036    
    120000   0.96330578     0.22984244     0              1.6740956      4.3398259    
    121000   0.94199221     0.22741191     0              1.6397103      4.3436307    
    122000   0.91143517     0.22240378     0              1.588889       4.1582652    
    123000   0.86821067     0.21961624     0              1.5212964      4.1334634    
    124000   0.86503242     0.22138307     0              1.5182981      4.1080259    
    125000   0.82539988     0.22336453     0              1.4608598      4.1635752    
    126000   0.80602295     0.1985016      0              1.4069457      3.8763293    
    127000   0.76243474     0.19280754     0              1.3359012      3.8019896    
    128000   0.72902511     0.17825735     0              1.2712611      3.5852726    
    129000   0.71140421     0.17180867     0              1.2383939      3.5421194    
    130000   0.67856694     0.17358391     0              1.1909373      3.5142795    
    131000   0.64955429     0.16476199     0              1.1386177      3.3600632    
    132000   0.61330934     0.14234103     0              1.0618558      3.0847415    
    133000   0.58202115     0.13557826     0              1.0081837      2.9465184    
    134000   0.55785543     0.1280897      0              0.96446426     2.807213     
    135000   0.53624488     0.1196268      0              0.92360136     2.7284001    
    136000   0.51451529     0.11080367     0              0.88219975     2.6331305    
    137000   0.47863251     0.097395294    0              0.8149935      2.34127      
    138000   0.44556137     0.094797181    0              0.76281289     2.3008128    
    139000   0.42745861     0.083469092    0              0.72434392     2.1393317    
    140000   0.3876543      0.0785737      0              0.65977123     2.0264105    
    141000   0.35996098     0.070102925    0              0.60978076     1.8824764    
    142000   0.33628191     0.060763294    0              0.56493986     1.7127225    
    143000   0.29988109     0.051377744    0              0.50097974     1.5296796    
    144000   0.27115831     0.048778233    0              0.4553171      1.4355092    
    145000   0.25811415     0.042359166    0              0.42934135     1.3100243    
    146000   0.22718273     0.03577561     0              0.37638331     1.1970559    
    147000   0.19246527     0.030094137    0              0.31865108     1.0332257    
    148000   0.16029752     0.024166706    0              0.26449559     0.88185523   
    149000   0.13124053     0.01631807     0              0.21308274     0.69215465   
    150000   0.10151147     0.012374077    0              0.16456694     0.56786594   
Loop time of 35.5882 on 1 procs for 100000 steps with 2048 atoms

Performance: 2427769.790 tau/day, 2809.919 timesteps/s, 5.755 Matom-step/s
99.7% CPU use with 1 MPI tasks x 1 OpenMP threads

MPI task timing breakdown:
Section |  min time  |  avg time  |  max time  |%varavg| %total
---------------------------------------------------------------
Pair    | 6.4675     | 6.4675     | 6.4675     |   0.0 | 18.17
Neigh   | 23.935     | 23.935     | 23.935     |   0.0 | 67.25
Comm    | 1.7759     | 1.7759     | 1.7759     |   0.0 |  4.99
Output  | 0.01081    | 0.01081    | 0.01081    |   0.0 |  0.03
Modify  | 2.534      | 2.534      | 2.534      |   0.0 |  7.12
Other   |            | 0.8653     |            |       |  2.43

Nlocal:           2048 ave        2048 max        2048 min
Histogram: 1 0 0 0 0 0 0 0 0 0
Nghost:           1400 ave        1400 max        1400 min
Histogram: 1 0 0 0 0 0 0 0 0 0
Neighs:           7884 ave        7884 max        7884 min
Histogram: 1 0 0 0 0 0 0 0 0 0

Total # of neighbors = 7884
Ave neighs/atom = 3.8496094
Neighbor list builds = 28380
Dangerous builds = 0
unfix 1
undump 1
Total wall time: 0:00:59
