LAMMPS (15 Sep 2022)
OMP_NUM_THREADS environment is not set. Defaulting to 1 thread. (src/comm.cpp:98)
  using 1 OpenMP thread(s) per MPI task
# 3D WCA system, random initial configuration

# Parameter settings
variable initial_temperature equal 3.0
variable final_temperature equal 0.1
variable dt equal 0.01
variable tau equal 100*${dt}
variable tau equal 100*0.01
variable thermo_time equal 1000       # Ensure frequent DCD output for 3D case
variable equil_steps equal 50000
variable run_steps equal 100000

units           lj
atom_style      atomic
dimension       3                    # Change dimension to 3 for 3D simulation

# Define lattice and region
lattice         fcc ${density}       # Change lattice type to fcc
lattice         fcc 1.4       
Lattice spacing in x,y,z = 1.4189834 1.4189834 1.4189834
region          box block 0 8 0 8 0 8   # Set the region to be sized 8x8x8
create_box      1 box
Created orthogonal box = (0 0 0) to (11.351867 11.351867 11.351867)
  1 by 1 by 1 MPI processor grid
create_atoms    1 box
Created 2048 atoms
  using lattice units in orthogonal box = (0 0 0) to (11.351867 11.351867 11.351867)
  create_atoms CPU = 0.000 seconds
mass 1 1.0

# Set initial velocity
velocity all create ${initial_temperature} 12345
velocity all create 3 12345

# Define interactions
pair_style      lj/cut 1.0
pair_coeff      1 1 10.0 0.89089871814 1.0
pair_modify shift yes

# Simulation parameters
timestep        ${dt}
timestep        0.01
thermo          ${thermo_time}
thermo          1000

# High-temperature equilibration phase
fix 1 all nvt temp ${initial_temperature} ${initial_temperature} ${tau}
fix 1 all nvt temp 3 ${initial_temperature} ${tau}
fix 1 all nvt temp 3 3 ${tau}
fix 1 all nvt temp 3 3 1
run ${equil_steps}
run 50000
Generated 0 of 0 mixed pair_coeff terms from geometric mixing rule
Neighbor list info ...
  update: every = 1 steps, delay = 0 steps, check = yes
  max neighbors/atom: 2000, page size: 100000
  master list distance cutoff = 1.3
  ghost atom cutoff = 1.3
  binsize = 0.65, bins = 18 18 18
  1 neighbor lists, perpetual/occasional/extra = 1 0 0
  (1) pair lj/cut, perpetual
      attributes: half, newton on
      pair build: half/bin/atomonly/newton
      stencil: half/bin/3d
      bin: standard
Per MPI rank memory allocation (min/avg/max) = 3.156 | 3.156 | 3.156 Mbytes
   Step          Temp          E_pair         E_mol          TotEng         Press     
         0   3              0              0              4.4978027      4.1979492    
      1000   2.8979725      3.8126693      0              8.1575055      72.550633    
      2000   3.0143033      3.9581725      0              8.4774197      73.852048    
      3000   3.0193589      3.9956062      0              8.5224331      74.597628    
      4000   2.9932172      3.8928461      0              8.3804796      73.262028    
      5000   3.0381258      3.9661951      0              8.5211586      74.213137    
      6000   3.0185155      3.9869818      0              8.5125441      73.973346    
      7000   3.0036125      4.005515       0              8.5087339      75.104818    
      8000   3.0015213      3.9914183      0              8.4915019      74.325779    
      9000   3.0356273      3.90462        0              8.4558376      74.127585    
     10000   3.1071331      3.8005687      0              8.4589927      72.541891    
     11000   3.0854848      3.826959       0              8.4529263      72.518947    
     12000   3.029608       3.9347204      0              8.4769135      73.950509    
     13000   3.0376919      3.968805       0              8.5231179      74.23185     
     14000   3.1287996      3.8313486      0              8.5222565      72.868202    
     15000   3.0955111      3.967119       0              8.6081184      74.111755    
     16000   3.0329024      3.9135247      0              8.460657       73.731001    
     17000   3.067158       3.8429727      0              8.4414633      73.17677     
     18000   3.0915676      3.8702837      0              8.5053708      73.213306    
     19000   3.0634831      3.9609042      0              8.5538851      74.125256    
     20000   3.0654197      3.8499808      0              8.4458651      73.040814    
     21000   2.9776009      4.007888       0              8.4721084      74.965076    
     22000   3.1052602      3.8336157      0              8.4892316      73.132599    
     23000   2.9618473      4.0563655      0              8.4969671      75.454942    
     24000   3.0599856      3.8753468      0              8.4630839      73.428335    
     25000   3.0579196      3.8700398      0              8.4546796      73.265516    
     26000   3.0481942      3.8972799      0              8.4673386      73.686357    
     27000   3.0485987      3.9186329      0              8.4892982      73.566643    
     28000   3.0360725      3.8805119      0              8.432397       72.919023    
     29000   3.0900538      3.8286616      0              8.461479       72.869236    
     30000   3.0650269      3.8654159      0              8.4607113      73.179243    
     31000   2.9391356      4.0275911      0              8.4341418      75.036621    
     32000   3.0496343      3.9904057      0              8.5626235      74.610352    
     33000   3.0391107      3.9294734      0              8.4859136      73.729314    
     34000   3.0946093      3.8407358      0              8.4803831      73.183108    
     35000   3.0043546      3.965687       0              8.4700185      74.057166    
     36000   3.0786414      3.8145695      0              8.4302767      72.991304    
     37000   3.06836        3.8855761      0              8.4858688      73.410803    
     38000   3.0177846      3.9672869      0              8.4917535      74.485537    
     39000   3.125986       3.8073022      0              8.4939917      72.579136    
     40000   2.9730013      4.0064654      0              8.4637898      74.557103    
     41000   2.9869093      4.0620802      0              8.5402565      75.249881    
     42000   2.967566       4.0477873      0              8.4969627      75.169221    
     43000   3.0514578      3.8808321      0              8.4557838      73.512732    
     44000   3.1286813      3.7921613      0              8.4828917      72.291393    
     45000   3.0586543      3.92262        0              8.5083613      73.869021    
     46000   3.0738645      3.9218057      0              8.530351       73.731174    
     47000   3.001857       3.9841885      0              8.4847753      74.31474     
     48000   2.9693853      4.0214664      0              8.4733695      74.841219    
     49000   3.0227887      3.9530896      0              8.4850587      73.871408    
     50000   3.0818206      3.8864411      0              8.5069148      73.864264    
Loop time of 26.115 on 1 procs for 50000 steps with 2048 atoms

Performance: 1654222.758 tau/day, 1914.610 timesteps/s, 3.921 Matom-step/s
99.8% CPU use with 1 MPI tasks x 1 OpenMP threads

MPI task timing breakdown:
Section |  min time  |  avg time  |  max time  |%varavg| %total
---------------------------------------------------------------
Pair    | 8.3434     | 8.3434     | 8.3434     |   0.0 | 31.95
Neigh   | 14.987     | 14.987     | 14.987     |   0.0 | 57.39
Comm    | 1.003      | 1.003      | 1.003      |   0.0 |  3.84
Output  | 0.00099594 | 0.00099594 | 0.00099594 |   0.0 |  0.00
Modify  | 1.2557     | 1.2557     | 1.2557     |   0.0 |  4.81
Other   |            | 0.5248     |            |       |  2.01

Nlocal:           2048 ave        2048 max        2048 min
Histogram: 1 0 0 0 0 0 0 0 0 0
Nghost:           1394 ave        1394 max        1394 min
Histogram: 1 0 0 0 0 0 0 0 0 0
Neighs:          12550 ave       12550 max       12550 min
Histogram: 1 0 0 0 0 0 0 0 0 0

Total # of neighbors = 12550
Ave neighs/atom = 6.1279297
Neighbor list builds = 20280
Dangerous builds = 0
unfix 1

# Dump settings for trajectory output
# Output the trajectory information for cooling phase in DCD format, unique file for each density
dump            1 all dcd ${thermo_time} 3dWCA_density_${density}.dcd
dump            1 all dcd 1000 3dWCA_density_${density}.dcd
dump            1 all dcd 1000 3dWCA_density_1.4.dcd
dump_modify     1 unwrap yes

# Cooling phase, gradually lowering temperature to final_temperature
fix 1 all nvt temp ${initial_temperature} ${final_temperature} ${tau}
fix 1 all nvt temp 3 ${final_temperature} ${tau}
fix 1 all nvt temp 3 0.1 ${tau}
fix 1 all nvt temp 3 0.1 1
run ${run_steps}
run 100000
Generated 0 of 0 mixed pair_coeff terms from geometric mixing rule
Per MPI rank memory allocation (min/avg/max) = 3.296 | 3.296 | 3.296 Mbytes
   Step          Temp          E_pair         E_mol          TotEng         Press     
     50000   3.0818206      3.8864411      0              8.5069148      73.864264    
     51000   2.9799121      3.9882947      0              8.4559804      74.430877    
     52000   2.9466882      3.8876799      0              8.305554       73.252634    
     53000   2.9419474      3.8983684      0              8.3091347      73.091429    
     54000   2.984083       3.6686017      0              8.1425406      70.752751    
ERROR: Dump dcd of non-matching # of atoms (src/EXTRA-DUMP/dump_dcd.cpp:137)
Last command: run ${run_steps}
