LAMMPS (15 Sep 2022)
OMP_NUM_THREADS environment is not set. Defaulting to 1 thread. (src/comm.cpp:98)
  using 1 OpenMP thread(s) per MPI task
# 3D WCA system, random initial configuration

# Parameter settings
variable initial_temperature equal 3.0
variable final_temperature equal 0.1
variable dt equal 0.01
variable tau equal 100*${dt}
variable tau equal 100*0.01
variable thermo_time equal 1000       # Ensure frequent DCD output for 3D case
variable equil_steps equal 50000
variable run_steps equal 100000

units           lj
atom_style      atomic
dimension       3                    # Change dimension to 3 for 3D simulation

# Define lattice and region
lattice         fcc ${density}       # Change lattice type to fcc
lattice         fcc 1.3       
Lattice spacing in x,y,z = 1.4544726 1.4544726 1.4544726
region          box block 0 8 0 8 0 8   # Set the region to be sized 8x8x8
create_box      1 box
Created orthogonal box = (0 0 0) to (11.635781 11.635781 11.635781)
  1 by 1 by 1 MPI processor grid
create_atoms    1 box
Created 2048 atoms
  using lattice units in orthogonal box = (0 0 0) to (11.635781 11.635781 11.635781)
  create_atoms CPU = 0.000 seconds
mass 1 1.0

# Set initial velocity
velocity all create ${initial_temperature} 12345
velocity all create 3 12345

# Define interactions
pair_style      lj/cut 1.0
pair_coeff      1 1 10.0 0.89089871814 1.0
pair_modify shift yes

# Simulation parameters
timestep        ${dt}
timestep        0.01
thermo          ${thermo_time}
thermo          1000

# High-temperature equilibration phase
fix 1 all nvt temp ${initial_temperature} ${initial_temperature} ${tau}
fix 1 all nvt temp 3 ${initial_temperature} ${tau}
fix 1 all nvt temp 3 3 ${tau}
fix 1 all nvt temp 3 3 1
run ${equil_steps}
run 50000
Generated 0 of 0 mixed pair_coeff terms from geometric mixing rule
Neighbor list info ...
  update: every = 1 steps, delay = 0 steps, check = yes
  max neighbors/atom: 2000, page size: 100000
  master list distance cutoff = 1.3
  ghost atom cutoff = 1.3
  binsize = 0.65, bins = 18 18 18
  1 neighbor lists, perpetual/occasional/extra = 1 0 0
  (1) pair lj/cut, perpetual
      attributes: half, newton on
      pair build: half/bin/atomonly/newton
      stencil: half/bin/3d
      bin: standard
Per MPI rank memory allocation (min/avg/max) = 3.156 | 3.156 | 3.156 Mbytes
   Step          Temp          E_pair         E_mol          TotEng         Press     
         0   3              0              0              4.4978027      3.8980957    
      1000   2.9745512      2.7709872      0              7.2306354      49.951078    
      2000   3.0230668      2.7122319      0              7.2446178      49.855313    
      3000   2.9872925      2.876666       0              7.3554168      51.463122    
      4000   3.0479991      2.8556049      0              7.4253711      50.78204     
      5000   3.1172027      2.7525661      0              7.426087       49.885429    
      6000   3.0446347      2.8760677      0              7.4407898      51.436034    
      7000   3.005547       2.8997449      0              7.4058642      51.352861    
      8000   3.003474       2.8748015      0              7.3778126      51.096027    
      9000   3.0032925      2.8879672      0              7.3907063      51.2729      
     10000   3.0102198      2.8625978      0              7.3757228      51.482567    
     11000   2.950813       2.9868311      0              7.4108893      52.424559    
     12000   2.9914431      2.8956913      0              7.380665       51.512307    
     13000   3.0438244      2.7790978      0              7.3426051      50.321229    
     14000   3.0185682      2.8778877      0              7.4035291      51.001067    
     15000   3.0635945      2.7902398      0              7.3833877      50.244046    
     16000   3.0517561      2.8194115      0              7.3948105      50.653633    
     17000   2.9708524      2.8656531      0              7.3197558      51.06183     
     18000   3.078793       2.7751378      0              7.3910724      49.954068    
     19000   3.0011014      2.9112341      0              7.410688       52.082237    
     20000   3.0506666      2.7882907      0              7.3620561      50.51103     
     21000   3.0193055      2.8872458      0              7.4139926      51.417975    
     22000   3.0518306      2.8135557      0              7.3890663      50.799882    
     23000   3.0061672      2.8326924      0              7.3397414      50.975598    
     24000   3.0783021      2.7907981      0              7.4059966      50.468111    
     25000   2.9536102      2.8926663      0              7.3209183      51.780088    
     26000   3.0169235      2.8565147      0              7.3796904      51.410566    
     27000   2.9744099      2.7872703      0              7.2467066      49.923234    
     28000   3.0120966      2.910357       0              7.4262957      51.459639    
     29000   3.0223787      2.8687777      0              7.400132       50.991799    
     30000   3.0278607      2.8951729      0              7.4347463      51.535339    
     31000   3.0188726      2.8559765      0              7.3820743      51.401586    
     32000   3.0044206      2.8777587      0              7.3821891      51.221106    
     33000   3.0498813      2.8128801      0              7.3854682      50.641853    
     34000   2.9481794      2.8181239      0              7.2382336      50.635606    
     35000   2.9894387      2.6267617      0              7.1087303      48.111818    
     36000   2.9857052      2.8175309      0              7.293902       50.592122    
     37000   2.9730616      2.7965222      0              7.2539371      50.614       
     38000   3.0377694      2.7491572      0              7.3035864      50.221111    
     39000   3.0405141      2.7795269      0              7.3380711      50.129767    
     40000   3.0058021      2.9145141      0              7.4210157      52.074775    
     41000   3.0320152      2.7864246      0              7.3322266      50.520387    
     42000   3.0483938      2.8655369      0              7.4358949      51.426716    
     43000   3.0926546      2.850003       0              7.4867198      51.244972    
     44000   3.0623675      2.8800726      0              7.4713809      51.773931    
     45000   3.0217869      2.8704356      0              7.4009027      51.333431    
     46000   3.0608708      2.8331906      0              7.422255       51.132988    
     47000   3.0684126      2.7950492      0              7.3954208      50.307384    
     48000   3.011828       2.8697023      0              7.3852383      51.404104    
     49000   2.9872259      2.8905229      0              7.3691738      51.630129    
     50000   2.996414       2.9000874      0              7.3925138      51.783005    
Loop time of 26.1176 on 1 procs for 50000 steps with 2048 atoms

Performance: 1654055.280 tau/day, 1914.416 timesteps/s, 3.921 Matom-step/s
99.8% CPU use with 1 MPI tasks x 1 OpenMP threads

MPI task timing breakdown:
Section |  min time  |  avg time  |  max time  |%varavg| %total
---------------------------------------------------------------
Pair    | 7.0863     | 7.0863     | 7.0863     |   0.0 | 27.13
Neigh   | 16.233     | 16.233     | 16.233     |   0.0 | 62.15
Comm    | 1.0186     | 1.0186     | 1.0186     |   0.0 |  3.90
Output  | 0.00096476 | 0.00096476 | 0.00096476 |   0.0 |  0.00
Modify  | 1.2589     | 1.2589     | 1.2589     |   0.0 |  4.82
Other   |            | 0.5197     |            |       |  1.99

Nlocal:           2048 ave        2048 max        2048 min
Histogram: 1 0 0 0 0 0 0 0 0 0
Nghost:           1400 ave        1400 max        1400 min
Histogram: 1 0 0 0 0 0 0 0 0 0
Neighs:          12534 ave       12534 max       12534 min
Histogram: 1 0 0 0 0 0 0 0 0 0

Total # of neighbors = 12534
Ave neighs/atom = 6.1201172
Neighbor list builds = 20126
Dangerous builds = 0
unfix 1

# Dump settings for trajectory output
# Output the trajectory information for cooling phase in DCD format, unique file for each density
dump            1 all dcd ${thermo_time} 3dWCA_density_${density}.dcd
dump            1 all dcd 1000 3dWCA_density_${density}.dcd
dump            1 all dcd 1000 3dWCA_density_1.3.dcd
dump_modify     1 unwrap yes

# Cooling phase, gradually lowering temperature to final_temperature
fix 1 all nvt temp ${initial_temperature} ${final_temperature} ${tau}
fix 1 all nvt temp 3 ${final_temperature} ${tau}
fix 1 all nvt temp 3 0.1 ${tau}
fix 1 all nvt temp 3 0.1 1
run ${run_steps}
run 100000
Generated 0 of 0 mixed pair_coeff terms from geometric mixing rule
Per MPI rank memory allocation (min/avg/max) = 3.297 | 3.297 | 3.297 Mbytes
   Step          Temp          E_pair         E_mol          TotEng         Press     
     50000   2.996414       2.9000874      0              7.3925138      51.783005    
     51000   2.8874043      2.8799629      0              7.2089545      50.990942    
     52000   2.9431366      2.8079103      0              7.2204596      50.546843    
     53000   2.9301855      2.7921313      0              7.1852633      50.518254    
     54000   2.9499178      2.7501777      0              7.1728939      49.862074    
     55000   2.9165843      2.7697582      0              7.1424985      50.189237    
     56000   2.8750841      2.6532738      0              6.9637942      48.695468    
     57000   2.8259377      2.608707       0              6.8455437      48.066803    
     58000   2.686436       2.5517482      0              6.5794346      47.127873    
     59000   2.6995363      2.5413219      0              6.588649       47.251244    
     60000   2.656618       2.5098454      0              6.4928266      46.473985    
     61000   2.7857981      2.5380686      0              6.7147255      47.228597    
     62000   2.6609031      2.5406729      0              6.5300786      47.194965    
     63000   2.6372306      2.4117972      0              6.3657116      45.559582    
     64000   2.5863348      2.3285114      0              6.2061194      44.699437    
     65000   2.5357524      2.3735249      0              6.1752962      44.479987    
     66000   2.4944018      2.3668382      0              6.106614       44.674644    
     67000   2.5347627      2.2751083      0              6.0753958      43.617792    
     68000   2.4751549      2.2731627      0              5.9840823      43.485567    
     69000   2.4381861      2.2639625      0              5.9194559      43.14715     
     70000   2.4240087      2.2108569      0              5.8450945      42.787815    
     71000   2.431723       2.0958173      0              5.7416207      41.430696    
     72000   2.4202087      2.0708786      0              5.6994191      41.122312    
     73000   2.3587293      2.1432755      0              5.6796418      41.849608    
     74000   2.2925648      2.0806127      0              5.5177807      41.104557    
     75000   2.308894       2.0356153      0              5.4972652      40.64354     
     76000   2.1738374      2.1028502      0              5.362014       41.230863    
     77000   2.1714754      2.0256118      0              5.2812345      40.370925    
     78000   2.1972075      2.0047064      0              5.2989084      40.068245    
     79000   2.1257851      1.9570838      0              5.1442045      39.352201    
     80000   2.1200004      1.9326674      0              5.1111153      38.907979    
     81000   2.1454997      1.8604158      0              5.077094       38.056587    
     82000   2.0546753      1.8677296      0              4.9482377      38.218388    
     83000   2.0403753      1.8652872      0              4.9243557      37.963269    
     84000   2.0535975      1.8315599      0              4.910452       37.502684    
     85000   2.0678338      1.844318       0              4.9445542      37.551728    
     86000   1.9207639      1.7988064      0              4.6785455      36.631128    
     87000   1.948137       1.7707123      0              4.6914909      36.641339    
     88000   1.9117047      1.781792       0              4.6479489      36.714045    
     89000   1.9235588      1.6588996      0              4.542829       35.227281    
     90000   1.8517831      1.626595       0              4.4029134      34.557241    
     91000   1.7823737      1.6331076      0              4.3053627      34.487146    
     92000   1.821466       1.5167281      0              4.2475931      33.008801    
     93000   1.817097       1.5744538      0              4.2987683      33.889648    
     94000   1.7044671      1.5704596      0              4.1259119      33.594603    
     95000   1.69056        1.5180442      0              4.0526461      33.113072    
     96000   1.6765279      1.4586396      0              3.9722036      32.3066      
     97000   1.6217224      1.4335647      0              3.8649606      31.553842    
     98000   1.6183474      1.4067871      0              3.833123       31.192461    
     99000   1.5602468      1.3584795      0              3.6977068      30.638406    
    100000   1.49834        1.3444737      0              3.5908862      30.250767    
    101000   1.5339924      1.2876305      0              3.5874955      29.444733    
    102000   1.5102036      1.3367424      0              3.6009417      30.00789     
    103000   1.4623045      1.2519852      0              3.4443709      28.920249    
    104000   1.454541       1.1823369      0              3.3630831      28.021329    
    105000   1.4295939      1.1723053      0              3.315649       27.552477    
    106000   1.3726854      1.1822224      0              3.2402451      27.627317    
    107000   1.29927        1.1717871      0              3.1197405      27.340149    
    108000   1.3020006      1.0800218      0              3.0320691      26.089973    
    109000   1.3168514      1.0908233      0              3.0651359      26.488861    
    110000   1.2575136      1.0307239      0              2.9160733      25.377658    
    111000   1.2299649      1.0615919      0              2.9056385      25.825316    
    112000   1.2268477      1.0443741      0              2.883747       25.652075    
    113000   1.1540852      1.0142854      0              2.7445679      25.193049    
    114000   1.1406202      0.95138563     0              2.6614805      23.905694    
    115000   1.1308169      0.88378203     0              2.5791791      22.8744      
    116000   1.0813761      0.8573739      0              2.478646       22.249289    
    117000   1.0247514      0.87981543     0              2.416192       22.63747     
    118000   1.0624558      0.83786617     0              2.4307717      21.908759    
    119000   1.0195013      0.86579574     0              2.394301       22.414122    
    120000   1.0009813      0.78197222     0              2.282711       21.187228    
    121000   0.93680632     0.78343588     0              2.1879592      20.965823    
    122000   0.89539363     0.74509619     0              2.0875308      20.477119    
    123000   0.88022336     0.69149471     0              2.0111851      19.580627    
    124000   0.84013785     0.67546075     0              1.9350522      18.975008    
    125000   0.80569231     0.65061463     0              1.858563       18.502912    
    126000   0.81711425     0.61507983     0              1.8401527      18.040056    
    127000   0.78198733     0.61879016     0              1.7911984      18.061198    
    128000   0.73728366     0.5920094      0              1.6973949      17.447937    
    129000   0.71769742     0.54032299     0              1.6163435      16.415564    
    130000   0.68896687     0.50499159     0              1.5379373      15.642668    
    131000   0.65855264     0.49250102     0              1.4798476      15.367562    
    132000   0.61185273     0.47944601     0              1.396777       15.009866    
    133000   0.58809334     0.44520498     0              1.3269142      14.478845    
    134000   0.56393878     0.40947639     0              1.2549715      13.55334     
    135000   0.52648785     0.39235782     0              1.181704       13.493731    
    136000   0.51848266     0.38041656     0              1.1577608      12.98821     
    137000   0.50385654     0.33574435     0              1.0911601      12.061753    
    138000   0.46324661     0.32459503     0              1.0191257      11.647221    
    139000   0.41968603     0.3136943      0              0.94291595     11.388575    
    140000   0.40023138     0.26878273     0              0.86883666     10.355844    
    141000   0.36031515     0.236993       0              0.77720183     9.486246     
    142000   0.33632148     0.20280899     0              0.70704489     8.6299216    
    143000   0.30290861     0.18963313     0              0.6437742      8.1701033    
    144000   0.26841646     0.16727595     0              0.56970404     7.5565484    
    145000   0.24887847     0.14212811     0              0.51526353     6.7611258    
    146000   0.21643702     0.12174969     0              0.4462467      6.1332955    
    147000   0.19014616     0.10845055     0              0.39353053     5.6281037    
    148000   0.15953561     0.089360182    0              0.32854675     4.9588031    
    149000   0.1302257      0.06966166     0              0.26490483     4.2015012    
    150000   0.10109549     0.05099115     0              0.20256033     3.4704914    
Loop time of 38.611 on 1 procs for 100000 steps with 2048 atoms

Performance: 2237706.483 tau/day, 2589.938 timesteps/s, 5.304 Matom-step/s
99.5% CPU use with 1 MPI tasks x 1 OpenMP threads

MPI task timing breakdown:
Section |  min time  |  avg time  |  max time  |%varavg| %total
---------------------------------------------------------------
Pair    | 12.807     | 12.807     | 12.807     |   0.0 | 33.17
Neigh   | 20.769     | 20.769     | 20.769     |   0.0 | 53.79
Comm    | 1.5427     | 1.5427     | 1.5427     |   0.0 |  4.00
Output  | 0.091673   | 0.091673   | 0.091673   |   0.0 |  0.24
Modify  | 2.5212     | 2.5212     | 2.5212     |   0.0 |  6.53
Other   |            | 0.8792     |            |       |  2.28

Nlocal:           2048 ave        2048 max        2048 min
Histogram: 1 0 0 0 0 0 0 0 0 0
Nghost:           1381 ave        1381 max        1381 min
Histogram: 1 0 0 0 0 0 0 0 0 0
Neighs:          12288 ave       12288 max       12288 min
Histogram: 1 0 0 0 0 0 0 0 0 0

Total # of neighbors = 12288
Ave neighs/atom = 6
Neighbor list builds = 27654
Dangerous builds = 0
unfix 1
undump 1
Total wall time: 0:01:04
