LAMMPS (15 Sep 2022)
OMP_NUM_THREADS environment is not set. Defaulting to 1 thread. (src/comm.cpp:98)
  using 1 OpenMP thread(s) per MPI task
# 2D WCA system, random initial configuration

# Parameter settings
variable initial_temperature equal 3.0
variable final_temperature equal 0.1
variable dt equal 0.01
variable tau equal 100*${dt}
variable tau equal 100*0.01
variable thermo_time equal 1000       # Set to a smaller interval to ensure frequent DCD output
variable equil_steps equal 50000
variable run_steps equal 100000

units           lj
atom_style      atomic
dimension       2

# Define lattice and region
lattice         sq ${density}
lattice         sq 0.6
Lattice spacing in x,y,z = 1.2909944 1.2909944 1.2909944
region          box block 0 20 0 20 -0.5 0.5
create_box      1 box
Created orthogonal box = (0 0 -0.64549722) to (25.819889 25.819889 0.64549722)
  1 by 1 by 1 MPI processor grid
create_atoms    1 box
Created 400 atoms
  using lattice units in orthogonal box = (0 0 -0.64549722) to (25.819889 25.819889 0.64549722)
  create_atoms CPU = 0.000 seconds
mass 1 1.0  # Set mass for the original atom type

# Set initial velocity
velocity all create ${initial_temperature} 12345
velocity all create 3 12345

# Define interactions
pair_style      lj/cut 1.0
pair_coeff      1 1 10.0 0.89089871814 1.0  # Original Lennard-Jones parameters
pair_modify shift yes

# Simulation parameters
timestep        ${dt}
timestep        0.01
thermo          ${thermo_time}
thermo          1000

# High-temperature equilibration phase
fix 1 all nvt temp ${initial_temperature} ${initial_temperature} ${tau}
fix 1 all nvt temp 3 ${initial_temperature} ${tau}
fix 1 all nvt temp 3 3 ${tau}
fix 1 all nvt temp 3 3 1
run ${equil_steps}
run 50000
Generated 0 of 0 mixed pair_coeff terms from geometric mixing rule
Neighbor list info ...
  update: every = 1 steps, delay = 0 steps, check = yes
  max neighbors/atom: 2000, page size: 100000
  master list distance cutoff = 1.3
  ghost atom cutoff = 1.3
  binsize = 0.65, bins = 40 40 2
  1 neighbor lists, perpetual/occasional/extra = 1 0 0
  (1) pair lj/cut, perpetual
      attributes: half, newton on
      pair build: half/bin/atomonly/newton
      stencil: half/bin/2d
      bin: standard
Per MPI rank memory allocation (min/avg/max) = 3.058 | 3.058 | 3.058 Mbytes
   Step          Temp          E_pair         E_mol          TotEng         Press     
         0   3              0              0              2.9925         1.7955       
      1000   2.924559       0.31577665     0              3.2330242      5.283926     
      2000   2.9234789      0.37440215     0              3.2905723      5.6426964    
      3000   2.9750455      0.4779677      0              3.4455756      6.5630381    
      4000   3.2649726      0.28702194     0              3.5438321      5.371        
      5000   3.0421044      0.35694266     0              3.3914418      5.9337542    
      6000   3.4178827      0.42842428     0              3.8377622      6.4861319    
      7000   3.1059252      0.28058795     0              3.3787484      5.3851347    
      8000   2.8891169      0.17741109     0              3.0593052      4.137405     
      9000   3.0119084      0.24510179     0              3.2494804      4.9191335    
     10000   3.0245826      0.31617294     0              3.3331941      5.5113454    
     11000   2.9998396      0.32786187     0              3.3202019      5.6325869    
     12000   3.3623181      0.37285785     0              3.7267702      6.1194968    
     13000   3.0133561      0.36218843     0              3.3680111      5.9036621    
     14000   3.0126772      0.40515147     0              3.410297       6.0904515    
     15000   3.0365213      0.22882091     0              3.257751       4.8015577    
     16000   2.8511339      0.30141126     0              3.1454174      5.3533544    
     17000   2.9099065      0.28304704     0              3.1856787      4.984638     
     18000   2.9493557      0.2540374      0              3.1960197      4.6477193    
     19000   3.146045       0.24293616     0              3.381116       4.8937835    
     20000   3.1298728      0.21469983     0              3.3367479      4.5808317    
     21000   3.0434051      0.4865955      0              3.5223921      7.2584664    
     22000   3.0097137      0.25329248     0              3.2554819      4.7620317    
     23000   2.9446866      0.35490669     0              3.2922316      5.7104102    
     24000   2.8729314      0.25909607     0              3.1248451      4.960669     
     25000   2.5972959      0.30610495     0              2.8969076      5.1883231    
     26000   3.0920465      0.24930233     0              3.3336188      4.696606     
     27000   2.9901182      0.40322931     0              3.3858722      6.1185885    
     28000   3.0345744      0.36170746     0              3.3886954      5.8049037    
     29000   3.2568385      0.31190872     0              3.5606051      5.7168825    
     30000   3.038434       0.32980696     0              3.3606449      5.4729456    
     31000   2.6858409      0.30987724     0              2.9890035      5.1402472    
     32000   3.1029031      0.29202361     0              3.3871694      5.1937997    
     33000   3.0298578      0.3550266      0              3.3773098      5.8939037    
     34000   3.1550218      0.32645339     0              3.4735876      5.6897043    
     35000   3.0172273      0.29894572     0              3.30863        5.3023367    
     36000   2.9058598      0.2732823      0              3.1718774      4.8523745    
     37000   2.8734783      0.30088601     0              3.1671806      5.3222588    
     38000   3.1396877      0.35990787     0              3.4917463      5.8202911    
     39000   3.0735955      0.36630914     0              3.4322207      5.85456      
     40000   3.0768472      0.39786991     0              3.467025       6.1270747    
     41000   2.7566373      0.38027944     0              3.1300251      5.7628199    
     42000   2.8869214      0.31791998     0              3.197624       5.2979753    
     43000   2.9931186      0.31981913     0              3.3054549      5.3905568    
     44000   3.0787016      0.33822505     0              3.4092299      5.5207827    
     45000   3.4464916      0.39137886     0              3.8292543      6.4671594    
     46000   3.0856337      0.30341463     0              3.3813342      5.3658136    
     47000   3.2166254      0.29039683     0              3.4989807      5.4488603    
     48000   2.8991151      0.23694868     0              3.128816       4.6503404    
     49000   3.2477864      0.28994989     0              3.5296168      5.4679022    
     50000   3.2160007      0.2695326      0              3.4774933      5.1112434    
Loop time of 1.46995 on 1 procs for 50000 steps with 400 atoms

Performance: 29388798.664 tau/day, 34014.813 timesteps/s, 13.606 Matom-step/s
99.6% CPU use with 1 MPI tasks x 1 OpenMP threads

MPI task timing breakdown:
Section |  min time  |  avg time  |  max time  |%varavg| %total
---------------------------------------------------------------
Pair    | 0.33096    | 0.33096    | 0.33096    |   0.0 | 22.52
Neigh   | 0.69947    | 0.69947    | 0.69947    |   0.0 | 47.59
Comm    | 0.083013   | 0.083013   | 0.083013   |   0.0 |  5.65
Output  | 0.00041912 | 0.00041912 | 0.00041912 |   0.0 |  0.03
Modify  | 0.25861    | 0.25861    | 0.25861    |   0.0 | 17.59
Other   |            | 0.09747    |            |       |  6.63

Nlocal:            400 ave         400 max         400 min
Histogram: 1 0 0 0 0 0 0 0 0 0
Nghost:             87 ave          87 max          87 min
Histogram: 1 0 0 0 0 0 0 0 0 0
Neighs:            500 ave         500 max         500 min
Histogram: 1 0 0 0 0 0 0 0 0 0

Total # of neighbors = 500
Ave neighs/atom = 1.25
Neighbor list builds = 16929
Dangerous builds = 0
unfix 1

# Dump settings for trajectory output
# Output the trajectory information for cooling phase in DCD format, unique file for each density
dump            1 all dcd ${thermo_time} output_density_${density}.dcd
dump            1 all dcd 1000 output_density_${density}.dcd
dump            1 all dcd 1000 output_density_0.6.dcd
dump_modify     1 unwrap yes

# Cooling phase, gradually lowering temperature to final_temperature
fix 1 all nvt temp ${initial_temperature} ${final_temperature} ${tau}
fix 1 all nvt temp 3 ${final_temperature} ${tau}
fix 1 all nvt temp 3 0.1 ${tau}
fix 1 all nvt temp 3 0.1 1
run ${run_steps}
run 100000
Generated 0 of 0 mixed pair_coeff terms from geometric mixing rule
Per MPI rank memory allocation (min/avg/max) = 3.085 | 3.085 | 3.085 Mbytes
   Step          Temp          E_pair         E_mol          TotEng         Press     
     50000   3.2160007      0.2695326      0              3.4774933      5.1112434    
     51000   2.904351       0.26376768     0              3.1608578      4.9780791    
     52000   2.7029842      0.23907081     0              2.9352975      4.4122445    
     53000   2.8161901      0.35577554     0              3.1649252      5.8000832    
     54000   2.7997744      0.3167653      0              3.1095402      5.229577     
     55000   2.7052004      0.29807845     0              2.9965158      5.0118756    
     56000   2.7496503      0.26918819     0              3.0119644      4.92391      
     57000   2.6921665      0.25374787     0              2.9391839      4.6167934    
     58000   2.7617563      0.35399323     0              3.1088451      5.5453771    
     59000   2.8225087      0.31590899     0              3.1313614      5.5382372    
     60000   2.747245       0.35323481     0              3.0936117      5.5411749    
     61000   2.6923398      0.28752011     0              2.9731291      4.764011     
     62000   2.622252       0.21198685     0              2.8276832      4.4418738    
     63000   2.5828071      0.22124889     0              2.797599       4.4392826    
     64000   2.6588373      0.29675557     0              2.9489457      5.0790134    
     65000   2.7199139      0.3291993      0              3.0423134      5.4458296    
     66000   2.3836714      0.26003281     0              2.6377451      4.4137784    
     67000   2.4240496      0.18083389     0              2.5988233      3.6850229    
     68000   2.5795318      0.18556391     0              2.7586469      4.0336588    
     69000   2.4141773      0.32917936     0              2.7373212      5.2600634    
     70000   2.656114       0.20184941     0              2.8513231      4.2441262    
     71000   2.4288078      0.23657935     0              2.6593151      4.4848606    
     72000   2.3704419      0.1512408      0              2.5157566      3.6076424    
     73000   2.2681536      0.16884221     0              2.4313254      3.6890578    
     74000   2.0827017      0.25265389     0              2.3301488      4.242898     
     75000   2.1996388      0.1933143      0              2.387454       3.8384459    
     76000   2.1819424      0.13677944     0              2.313267       3.3955343    
     77000   2.1257501      0.2525401      0              2.3729759      4.3284235    
     78000   2.1624544      0.22691521     0              2.3839634      4.0214375    
     79000   1.9473792      0.27787818     0              2.2203889      4.5851283    
     80000   2.0448195      0.16057189     0              2.2002794      3.3648568    
     81000   2.2315483      0.17196608     0              2.3979356      3.7444275    
     82000   2.2245704      0.16643762     0              2.3854465      3.6444688    
     83000   2.0668937      0.24839113     0              2.3101176      4.3048264    
     84000   2.0953302      0.31843807     0              2.40853        5.0005409    
     85000   1.9093031      0.24812167     0              2.1526515      3.9785881    
     86000   1.8306386      0.16410516     0              1.9901671      3.3993536    
     87000   1.766965       0.18508779     0              1.9476354      3.5168171    
     88000   1.8574096      0.17022532     0              2.0229914      3.3507639    
     89000   1.9196381      0.13673121     0              2.0515702      3.0422025    
     90000   1.8515666      0.19376712     0              2.0407048      3.6626973    
     91000   1.7744694      0.24745207     0              2.0174852      4.2713363    
     92000   1.6547923      0.12811558     0              1.7787709      2.8355629    
     93000   1.720375       0.11830831     0              1.8343824      2.8577314    
     94000   1.6153988      0.13968406     0              1.7510444      3.0507936    
     95000   1.6957993      0.10560528     0              1.7971651      2.7039576    
     96000   1.6390338      0.13240367     0              1.7673399      2.9900793    
     97000   1.6322856      0.13770239     0              1.7659073      3.1264536    
     98000   1.6449978      0.12061741     0              1.7615027      2.7991895    
     99000   1.6433881      0.14092797     0              1.7802076      2.9499854    
    100000   1.6577591      0.13453702     0              1.7881518      2.9646253    
    101000   1.5284269      0.10835551     0              1.6329613      2.6811303    
    102000   1.3407739      0.13009302     0              1.467515       2.5638116    
    103000   1.4447053      0.13484527     0              1.5759388      2.7159058    
    104000   1.5233378      0.092469436    0              1.6119989      2.5194853    
    105000   1.4275714      0.12473565     0              1.5487381      2.6756846    
    106000   1.356701       0.13900058     0              1.4923099      2.7513936    
    107000   1.3485976      0.096104999    0              1.4413312      2.4272583    
    108000   1.2606425      0.06537903     0              1.3228699      1.870348     
    109000   1.3174511      0.075120057    0              1.3892775      2.1475288    
    110000   1.2944946      0.099084667    0              1.3903431      2.3740944    
    111000   1.3220127      0.11655663     0              1.4352643      2.5760147    
    112000   1.1373084      0.10285891     0              1.237324       2.299588     
    113000   1.126313       0.086547015    0              1.2100442      2.1169841    
    114000   1.1169057      0.057263638    0              1.171377       1.7260503    
    115000   1.041662       0.093774347    0              1.1328322      2.2338424    
    116000   1.1260545      0.068715814    0              1.1919552      1.9177241    
    117000   1.1169396      0.06597518     0              1.1801224      1.9973733    
    118000   1.0056533      0.090002076    0              1.0931413      2.1422595    
    119000   1.015387       0.083400123    0              1.0962487      2.0097613    
    120000   0.98994012     0.058919065    0              1.0463843      1.7328168    
    121000   0.86861652     0.047223109    0              0.91366809     1.4546601    
    122000   0.8940172      0.05295567     0              0.94473783     1.495999     
    123000   0.81733897     0.071004067    0              0.88629969     1.7503466    
    124000   0.84266735     0.051864047    0              0.89242473     1.5151187    
    125000   0.84131503     0.045345183    0              0.88455692     1.3748629    
    126000   0.81896172     0.059062143    0              0.87597645     1.6651235    
    127000   0.75478774     0.053471223    0              0.806372       1.4141509    
    128000   0.66637967     0.066616388    0              0.73133011     1.5927011    
    129000   0.69818396     0.046961384    0              0.74339989     1.3849516    
    130000   0.73393787     0.037844264    0              0.76994729     1.2020406    
    131000   0.70722882     0.037707852    0              0.7431686      1.1756335    
    132000   0.60259031     0.045031233    0              0.64611506     1.196662     
    133000   0.57045184     0.03010198     0              0.5991277      1.0362089    
    134000   0.52750861     0.042855353    0              0.56904519     1.1332476    
    135000   0.56114671     0.025569943    0              0.58531378     0.98105687   
    136000   0.53651169     0.042255807    0              0.57742622     1.1821531    
    137000   0.45601848     0.019486918    0              0.47436535     0.73345485   
    138000   0.43893208     0.024229483    0              0.46206423     0.80700469   
    139000   0.42813672     0.030049074    0              0.45711545     0.91930168   
    140000   0.40570688     0.022856308    0              0.42754892     0.8161805    
    141000   0.38592818     0.017024059    0              0.40198742     0.73862539   
    142000   0.31118133     0.022073383    0              0.33247676     0.76969345   
    143000   0.29825327     0.013704822    0              0.31121246     0.59060909   
    144000   0.27426334     0.018530869    0              0.29210855     0.61512229   
    145000   0.26355618     0.0093795782   0              0.27227687     0.46483992   
    146000   0.21981133     0.0071631865   0              0.22642499     0.36150128   
    147000   0.18119805     0.0046603846   0              0.18540544     0.29027938   
    148000   0.15897532     0.0054850768   0              0.16406296     0.3174375    
    149000   0.1315995      0.0057617075   0              0.13703221     0.30080234   
    150000   0.10342602     0.0027233861   0              0.10589084     0.20291054   
Loop time of 2.43224 on 1 procs for 100000 steps with 400 atoms

Performance: 35522740.934 tau/day, 41114.283 timesteps/s, 16.446 Matom-step/s
99.5% CPU use with 1 MPI tasks x 1 OpenMP threads

MPI task timing breakdown:
Section |  min time  |  avg time  |  max time  |%varavg| %total
---------------------------------------------------------------
Pair    | 0.5827     | 0.5827     | 0.5827     |   0.0 | 23.96
Neigh   | 1.0227     | 1.0227     | 1.0227     |   0.0 | 42.05
Comm    | 0.13417    | 0.13417    | 0.13417    |   0.0 |  5.52
Output  | 0.0033776  | 0.0033776  | 0.0033776  |   0.0 |  0.14
Modify  | 0.51947    | 0.51947    | 0.51947    |   0.0 | 21.36
Other   |            | 0.1698     |            |       |  6.98

Nlocal:            400 ave         400 max         400 min
Histogram: 1 0 0 0 0 0 0 0 0 0
Nghost:             85 ave          85 max          85 min
Histogram: 1 0 0 0 0 0 0 0 0 0
Neighs:            509 ave         509 max         509 min
Histogram: 1 0 0 0 0 0 0 0 0 0

Total # of neighbors = 509
Ave neighs/atom = 1.2725
Neighbor list builds = 24738
Dangerous builds = 0
unfix 1
undump 1

Total wall time: 0:00:03
