LAMMPS (15 Sep 2022)
OMP_NUM_THREADS environment is not set. Defaulting to 1 thread. (src/comm.cpp:98)
  using 1 OpenMP thread(s) per MPI task
# 2D WCA system, random initial configuration

# Parameter settings
variable initial_temperature equal 3.0
variable final_temperature equal 0.1
variable dt equal 0.01
variable tau equal 100*${dt}
variable tau equal 100*0.01
variable thermo_time equal 1000       # Set to a smaller interval to ensure frequent DCD output
variable equil_steps equal 50000
variable run_steps equal 100000

units           lj
atom_style      atomic
dimension       2

# Define lattice and region
lattice         sq ${density}
lattice         sq 1.1
Lattice spacing in x,y,z = 0.95346259 0.95346259 0.95346259
region          box block 0 20 0 20 -0.5 0.5
create_box      1 box
Created orthogonal box = (0 0 -0.47673129) to (19.069252 19.069252 0.47673129)
  1 by 1 by 1 MPI processor grid
create_atoms    1 box
Created 400 atoms
  using lattice units in orthogonal box = (0 0 -0.47673129) to (19.069252 19.069252 0.47673129)
  create_atoms CPU = 0.000 seconds
mass 1 1.0  # Set mass for the original atom type

# Set initial velocity
velocity all create ${initial_temperature} 12345
velocity all create 3 12345

# Define interactions
pair_style      lj/cut 1.0
pair_coeff      1 1 10.0 0.89089871814 1.0  # Original Lennard-Jones parameters
pair_modify shift yes

# Simulation parameters
timestep        ${dt}
timestep        0.01
thermo          ${thermo_time}
thermo          1000

# High-temperature equilibration phase
fix 1 all nvt temp ${initial_temperature} ${initial_temperature} ${tau}
fix 1 all nvt temp 3 ${initial_temperature} ${tau}
fix 1 all nvt temp 3 3 ${tau}
fix 1 all nvt temp 3 3 1
run ${equil_steps}
run 50000
Generated 0 of 0 mixed pair_coeff terms from geometric mixing rule
Neighbor list info ...
  update: every = 1 steps, delay = 0 steps, check = yes
  max neighbors/atom: 2000, page size: 100000
  master list distance cutoff = 1.3
  ghost atom cutoff = 1.3
  binsize = 0.65, bins = 30 30 2
  1 neighbor lists, perpetual/occasional/extra = 1 0 0
  (1) pair lj/cut, perpetual
      attributes: half, newton on
      pair build: half/bin/atomonly/newton
      stencil: half/bin/2d
      bin: standard
Per MPI rank memory allocation (min/avg/max) = 3.055 | 3.055 | 3.055 Mbytes
   Step          Temp          E_pair         E_mol          TotEng         Press     
         0   3              2.19122        0              5.18372        61.445802    
      1000   3.089702       2.3972588      0              5.4792366      49.535287    
      2000   2.9983251      2.0156737      0              5.0065029      43.767815    
      3000   3.1233844      2.206788       0              5.322364       47.176484    
      4000   3.1362269      2.0613969      0              5.1897832      44.485111    
      5000   3.0300613      2.0345921      0              5.0570783      44.055113    
      6000   2.8638385      2.1181952      0              4.9748741      44.548472    
      7000   2.946271       1.9674808      0              4.9063862      43.185976    
      8000   3.1527631      2.0387087      0              5.1835899      44.570285    
      9000   3.0393457      1.9383553      0              4.9701026      42.904335    
     10000   3.0704044      2.0668988      0              5.1296272      44.037183    
     11000   2.8755502      2.12759        0              4.9959514      45.675404    
     12000   3.3258837      2.1875219      0              5.505091       47.137614    
     13000   3.1694633      2.0509218      0              5.2124615      44.311122    
     14000   2.9182569      2.1022356      0              5.0131969      45.267097    
     15000   2.924651       2.047505       0              4.9648444      43.816057    
     16000   3.118604       2.0309103      0              5.1417178      44.276236    
     17000   2.9584415      2.4563833      0              5.4074288      48.56977     
     18000   2.9135105      2.3585066      0              5.2647333      48.578384    
     19000   2.9732048      2.0552984      0              5.0210702      44.262741    
     20000   3.0127658      1.8585561      0              4.86379        41.671061    
     21000   3.263366       2.0552154      0              5.3104229      44.340164    
     22000   2.8953398      2.0587246      0              4.946826       43.837627    
     23000   3.0594877      1.9632476      0              5.0150866      43.889165    
     24000   3.1540884      1.7552348      0              4.901438       39.962484    
     25000   3.2398084      2.186583       0              5.4182919      45.420309    
     26000   2.9675666      2.1006552      0              5.0608029      44.54044     
     27000   2.9356248      2.2626408      0              5.1909265      46.808286    
     28000   3.1729458      2.1418706      0              5.3068841      45.308811    
     29000   2.7536808      2.2042974      0              4.951094       46.279552    
     30000   2.8999982      2.0627215      0              4.9554697      43.433884    
     31000   3.0120582      2.1618934      0              5.1664214      45.897297    
     32000   3.0769924      2.0764627      0              5.1457626      44.088481    
     33000   3.076232       2.1776875      0              5.2462289      46.488025    
     34000   3.1200667      1.9604261      0              5.0726926      42.946912    
     35000   3.068459       2.0595663      0              5.1203542      44.058926    
     36000   3.0095122      2.067072       0              5.0690604      44.043462    
     37000   2.8112084      2.1030223      0              4.9072026      44.03005     
     38000   2.9606051      2.1841994      0              5.137403       45.764619    
     39000   2.9503556      2.0074949      0              4.9504746      42.900147    
     40000   2.6927148      2.0137326      0              4.6997156      42.987394    
     41000   3.0257303      1.9088006      0              4.9269665      42.441905    
     42000   3.1065269      1.9050427      0              5.0038033      42.2492      
     43000   3.2829941      1.9089168      0              5.1837034      43.20254     
     44000   2.7500297      2.3045822      0              5.0477368      46.379326    
     45000   2.6826275      2.070881       0              4.7468019      43.964386    
     46000   2.6831474      1.944235       0              4.6206746      42.043223    
     47000   2.8465842      1.9603408      0              4.7998085      43.21557     
     48000   2.84001        2.033997       0              4.866907       43.577486    
     49000   2.8752124      1.9219546      0              4.789979       41.960632    
     50000   2.7929745      2.0966105      0              4.8826025      43.471502    
Loop time of 1.93108 on 1 procs for 50000 steps with 400 atoms

Performance: 22370860.375 tau/day, 25892.200 timesteps/s, 10.357 Matom-step/s
99.6% CPU use with 1 MPI tasks x 1 OpenMP threads

MPI task timing breakdown:
Section |  min time  |  avg time  |  max time  |%varavg| %total
---------------------------------------------------------------
Pair    | 0.82218    | 0.82218    | 0.82218    |   0.0 | 42.58
Neigh   | 0.65967    | 0.65967    | 0.65967    |   0.0 | 34.16
Comm    | 0.089954   | 0.089954   | 0.089954   |   0.0 |  4.66
Output  | 0.00040823 | 0.00040823 | 0.00040823 |   0.0 |  0.02
Modify  | 0.25992    | 0.25992    | 0.25992    |   0.0 | 13.46
Other   |            | 0.09895    |            |       |  5.12

Nlocal:            400 ave         400 max         400 min
Histogram: 1 0 0 0 0 0 0 0 0 0
Nghost:            115 ave         115 max         115 min
Histogram: 1 0 0 0 0 0 0 0 0 0
Neighs:           1182 ave        1182 max        1182 min
Histogram: 1 0 0 0 0 0 0 0 0 0

Total # of neighbors = 1182
Ave neighs/atom = 2.955
Neighbor list builds = 16856
Dangerous builds = 0
unfix 1

# Dump settings for trajectory output
# Output the trajectory information for cooling phase in DCD format, unique file for each density
dump            1 all dcd ${thermo_time} output_density_${density}.dcd
dump            1 all dcd 1000 output_density_${density}.dcd
dump            1 all dcd 1000 output_density_1.1.dcd
dump_modify     1 unwrap yes

# Cooling phase, gradually lowering temperature to final_temperature
fix 1 all nvt temp ${initial_temperature} ${final_temperature} ${tau}
fix 1 all nvt temp 3 ${final_temperature} ${tau}
fix 1 all nvt temp 3 0.1 ${tau}
fix 1 all nvt temp 3 0.1 1
run ${run_steps}
run 100000
Generated 0 of 0 mixed pair_coeff terms from geometric mixing rule
Per MPI rank memory allocation (min/avg/max) = 3.082 | 3.082 | 3.082 Mbytes
   Step          Temp          E_pair         E_mol          TotEng         Press     
     50000   2.7929745      2.0966105      0              4.8826025      43.471502    
     51000   2.7660499      2.2544297      0              5.0135645      47.11393     
     52000   3.1007608      1.8695752      0              4.9625841      42.309251    
     53000   2.7043599      2.0332289      0              4.730828       43.7816      
     54000   3.2012143      1.9863746      0              5.179586       43.872428    
     55000   2.8586552      1.9566567      0              4.8081652      42.227962    
     56000   2.7992529      1.9256523      0              4.7179071      41.917845    
     57000   2.688646       1.983208       0              4.6651324      42.668899    
     58000   2.8169267      1.7815278      0              4.5914122      40.076218    
     59000   2.8223707      1.859711       0              4.6750258      41.067944    
     60000   2.5344601      2.0424573      0              4.5705813      43.639345    
     61000   2.6426077      1.7965664      0              4.4325676      39.759013    
     62000   2.7386889      1.5818033      0              4.3136455      37.752549    
     63000   2.6432926      1.7633594      0              4.4000438      39.422452    
     64000   2.7511323      1.8082392      0              4.5524937      40.686391    
     65000   2.4340852      1.7760709      0              4.2040709      40.343628    
     66000   2.6285771      1.5902174      0              4.2122231      37.091513    
     67000   2.6115387      1.8713687      0              4.4763785      40.892043    
     68000   2.403333       1.788106       0              4.1854307      40.068392    
     69000   2.2073008      1.8067545      0              4.008537       39.808593    
     70000   2.4740635      1.6987021      0              4.1665804      38.333682    
     71000   2.3568964      1.5742451      0              3.9252493      36.684846    
     72000   2.4466337      1.5070384      0              3.9475555      35.749694    
     73000   2.2760531      1.4804319      0              3.7507949      35.113651    
     74000   2.2804944      1.5883142      0              3.8631074      37.204098    
     75000   2.6689671      1.4698016      0              4.1320963      35.653645    
     76000   2.3712175      1.4951232      0              3.8604127      35.391409    
     77000   2.227938       1.4460521      0              3.6684203      35.128651    
     78000   2.0865094      1.5230009      0              3.604294       35.292178    
     79000   2.2359865      1.4586984      0              3.6890949      34.722561    
     80000   2.0486574      1.2832936      0              3.3268293      33.027388    
     81000   1.8880479      1.4124636      0              3.2957914      34.515183    
     82000   2.1207851      1.4362112      0              3.5516943      34.805516    
     83000   1.812485       1.4371433      0              3.2450971      33.955883    
     84000   2.0598641      1.2521711      0              3.3068856      31.345516    
     85000   1.9856903      1.3685489      0              3.349275       32.363644    
     86000   2.0402545      1.2421124      0              3.2772662      31.371192    
     87000   1.7614947      1.3762293      0              3.1333203      33.392012    
     88000   1.9074707      1.0765318      0              2.9792338      27.936827    
     89000   1.7552115      1.2031822      0              2.9540057      31.217959    
     90000   1.781613       1.3378662      0              3.1150251      32.186729    
     91000   1.8618735      1.2785128      0              3.1357316      31.321327    
     92000   1.7749488      1.1189088      0              2.8894203      28.90274     
     93000   1.8468803      1.1003744      0              2.9426375      29.064469    
     94000   1.746811       1.1165212      0              2.8589652      29.461013    
     95000   1.7303253      1.1435231      0              2.8695226      29.182664    
     96000   1.8336902      1.0202609      0              2.8493668      27.804553    
     97000   1.8075911      1.1236801      0              2.9267522      28.792096    
     98000   1.5431074      1.0547889      0              2.5940385      28.031544    
     99000   1.5348075      0.95291886     0              2.4838893      26.080495    
    100000   1.6234139      0.94668326     0              2.5660386      26.427652    
    101000   1.5781397      0.94553435     0              2.5197287      25.902116    
    102000   1.5691981      1.088979       0              2.654254       28.853988    
    103000   1.4592601      0.96211658     0              2.4177285      26.483959    
    104000   1.3734018      0.98348393     0              2.3534522      26.452561    
    105000   1.3404022      0.9768233      0              2.3138745      26.079115    
    106000   1.3818327      0.8744537      0              2.2528319      24.889786    
    107000   1.3120676      0.94580934     0              2.2545968      25.692747    
    108000   1.3834642      0.85243578     0              2.2324413      24.508581    
    109000   1.328062       0.74434645     0              2.0690883      21.967092    
    110000   1.2519171      0.76670965     0              2.0154969      22.124285    
    111000   1.2870439      0.83488286     0              2.1187091      23.945398    
    112000   1.2089044      0.80704569     0              2.0129278      23.494103    
    113000   1.1367091      0.84040373     0              1.9742711      23.891088    
    114000   1.0328199      0.80611575     0              1.8363536      22.360739    
    115000   1.0857986      0.7874658      0              1.8705499      23.042742    
    116000   1.2156608      0.72048868     0              1.9331103      21.386056    
    117000   1.1078544      0.67348951     0              1.7785742      20.476879    
    118000   1.0825868      0.62276043     0              1.7026408      19.877516    
    119000   1.0283174      0.63192436     0              1.6576709      19.973912    
    120000   0.83534219     0.6659582      0              1.499212       20.149073    
    121000   0.95017889     0.60200643     0              1.5498099      19.310618    
    122000   0.84548329     0.6357408      0              1.4791104      19.694908    
    123000   0.96600295     0.57238452     0              1.5359725      18.039522    
    124000   0.89751577     0.59356455     0              1.4888365      19.034738    
    125000   0.77623763     0.505363       0              1.27966        17.264424    
    126000   0.82689238     0.47089399     0              1.2957191      16.61551     
    127000   0.78078113     0.53851007     0              1.3173392      17.549793    
    128000   0.73026401     0.44530075     0              1.1737391      15.814956    
    129000   0.65409763     0.45098195     0              1.1034443      16.011802    
    130000   0.65294361     0.40434315     0              1.0556544      14.998399    
    131000   0.60758358     0.40079922     0              1.0068638      14.536197    
    132000   0.62832047     0.34998106     0              0.97673073     13.712294    
    133000   0.63326584     0.37015741     0              1.0018401      14.264489    
    134000   0.55266447     0.35950109     0              0.9107839      13.889613    
    135000   0.51947536     0.3267024      0              0.84487907     12.845115    
    136000   0.50555277     0.36496234     0              0.86925123     13.441206    
    137000   0.52585535     0.29132166     0              0.81586237     12.256443    
    138000   0.44316995     0.2886175      0              0.73067953     11.738167    
    139000   0.42327699     0.24275821     0              0.66497701     10.675365    
    140000   0.3951768      0.23531214     0              0.62950101     10.251884    
    141000   0.37756858     0.20550538     0              0.58213004     9.5285279    
    142000   0.32425252     0.20551528     0              0.52895717     9.6681552    
    143000   0.34986765     0.18730496     0              0.53629794     9.2231405    
    144000   0.2585544      0.17610023     0              0.43400825     8.5034445    
    145000   0.23552833     0.14549715     0              0.38043666     7.5824673    
    146000   0.19955418     0.13742048     0              0.33647577     7.4589943    
    147000   0.17869798     0.10151331     0              0.27976454     6.1142606    
    148000   0.14911906     0.079085419    0              0.22783168     5.2071616    
    149000   0.12201459     0.068334518    0              0.19004407     4.8922485    
    150000   0.10094427     0.055542047    0              0.15623395     4.2545295    
Loop time of 3.2224 on 1 procs for 100000 steps with 400 atoms

Performance: 26812292.619 tau/day, 31032.746 timesteps/s, 12.413 Matom-step/s
99.5% CPU use with 1 MPI tasks x 1 OpenMP threads

MPI task timing breakdown:
Section |  min time  |  avg time  |  max time  |%varavg| %total
---------------------------------------------------------------
Pair    | 1.5459     | 1.5459     | 1.5459     |   0.0 | 47.97
Neigh   | 0.84515    | 0.84515    | 0.84515    |   0.0 | 26.23
Comm    | 0.13921    | 0.13921    | 0.13921    |   0.0 |  4.32
Output  | 0.0034431  | 0.0034431  | 0.0034431  |   0.0 |  0.11
Modify  | 0.52029    | 0.52029    | 0.52029    |   0.0 | 16.15
Other   |            | 0.1684     |            |       |  5.23

Nlocal:            400 ave         400 max         400 min
Histogram: 1 0 0 0 0 0 0 0 0 0
Nghost:            114 ave         114 max         114 min
Histogram: 1 0 0 0 0 0 0 0 0 0
Neighs:           1194 ave        1194 max        1194 min
Histogram: 1 0 0 0 0 0 0 0 0 0

Total # of neighbors = 1194
Ave neighs/atom = 2.985
Neighbor list builds = 23283
Dangerous builds = 0
unfix 1
undump 1

Total wall time: 0:00:05
