LAMMPS (15 Sep 2022)
OMP_NUM_THREADS environment is not set. Defaulting to 1 thread. (src/comm.cpp:98)
  using 1 OpenMP thread(s) per MPI task
# 2D WCA system, random initial configuration

# Parameter settings
variable initial_temperature equal 3.0
variable final_temperature equal 0.1
variable dt equal 0.01
variable tau equal 100*${dt}
variable tau equal 100*0.01
variable thermo_time equal 1000       # Set to a smaller interval to ensure frequent DCD output
variable equil_steps equal 50000
variable run_steps equal 100000

units           lj
atom_style      atomic
dimension       2

# Define lattice and region
lattice         sq ${density}
lattice         sq 0.8
Lattice spacing in x,y,z = 1.118034 1.118034 1.118034
region          box block 0 20 0 20 -0.5 0.5
create_box      1 box
Created orthogonal box = (0 0 -0.55901699) to (22.36068 22.36068 0.55901699)
  1 by 1 by 1 MPI processor grid
create_atoms    1 box
Created 400 atoms
  using lattice units in orthogonal box = (0 0 -0.55901699) to (22.36068 22.36068 0.55901699)
  create_atoms CPU = 0.000 seconds
mass 1 1.0  # Set mass for the original atom type

# Set initial velocity
velocity all create ${initial_temperature} 12345
velocity all create 3 12345

# Define interactions
pair_style      lj/cut 1.0
pair_coeff      1 1 10.0 0.89089871814 1.0  # Original Lennard-Jones parameters
pair_modify shift yes

# Simulation parameters
timestep        ${dt}
timestep        0.01
thermo          ${thermo_time}
thermo          1000

# High-temperature equilibration phase
fix 1 all nvt temp ${initial_temperature} ${initial_temperature} ${tau}
fix 1 all nvt temp 3 ${initial_temperature} ${tau}
fix 1 all nvt temp 3 3 ${tau}
fix 1 all nvt temp 3 3 1
run ${equil_steps}
run 50000
Generated 0 of 0 mixed pair_coeff terms from geometric mixing rule
Neighbor list info ...
  update: every = 1 steps, delay = 0 steps, check = yes
  max neighbors/atom: 2000, page size: 100000
  master list distance cutoff = 1.3
  ghost atom cutoff = 1.3
  binsize = 0.65, bins = 35 35 2
  1 neighbor lists, perpetual/occasional/extra = 1 0 0
  (1) pair lj/cut, perpetual
      attributes: half, newton on
      pair build: half/bin/atomonly/newton
      stencil: half/bin/2d
      bin: standard
Per MPI rank memory allocation (min/avg/max) = 3.056 | 3.056 | 3.056 Mbytes
   Step          Temp          E_pair         E_mol          TotEng         Press     
         0   3              0              0              2.9925         2.394        
      1000   2.7093743      0.69361168     0              3.3962126      12.17999     
      2000   2.9703743      0.68194996     0              3.6448984      12.211303    
      3000   3.0606194      0.64256727     0              3.6955351      11.740652    
      4000   2.9677384      0.78955459     0              3.7498737      13.852635    
      5000   2.9551939      0.65250153     0              3.6003075      12.325602    
      6000   2.9842789      0.61661394     0              3.5934322      11.928295    
      7000   2.9235541      0.63068914     0              3.5469344      11.958023    
      8000   2.8004186      0.66666758     0              3.4600851      12.240377    
      9000   2.7255203      0.62908854     0              3.347795       11.838675    
     10000   2.8217203      0.73170855     0              3.5463746      13.132007    
     11000   2.7866268      0.71186455     0              3.4915248      12.696277    
     12000   2.7010797      0.6210885      0              3.3154155      11.82492     
     13000   2.7468373      0.74579079     0              3.485761       12.981876    
     14000   2.8346114      0.64013742     0              3.4676623      12.088884    
     15000   2.9530084      0.62805673     0              3.5736826      12.240017    
     16000   2.6917942      0.69105365     0              3.3761184      12.344287    
     17000   2.8311523      0.69053802     0              3.5146125      13.18523     
     18000   2.8456332      0.49882986     0              3.337349       10.159801    
     19000   2.983481       0.6381901      0              3.6142124      11.938438    
     20000   3.1254122      0.61041098     0              3.7280096      11.899708    
     21000   3.1035795      0.79841779     0              3.8942384      13.779276    
     22000   3.1831817      0.68251045     0              3.8577342      12.962987    
     23000   3.1392891      0.71831188     0              3.8497527      13.091831    
     24000   3.1066041      0.78845316     0              3.8872907      13.526439    
     25000   3.2711843      0.67902691     0              3.9420333      12.417824    
     26000   3.1747933      0.61026163     0              3.777118       12.013038    
     27000   2.9816303      0.72121761     0              3.6953938      12.776181    
     28000   3.1294229      0.59852194     0              3.7201213      11.536035    
     29000   2.9001961      0.56759676     0              3.4605423      11.052691    
     30000   3.1062611      0.69643507     0              3.7949306      12.816864    
     31000   3.269393       0.85487136     0              4.1160908      14.530481    
     32000   3.0345417      0.65863145     0              3.6855868      12.433785    
     33000   3.3799143      0.60971575     0              3.9811803      12.091312    
     34000   3.2044691      0.55780876     0              3.7542667      11.304518    
     35000   3.3047048      0.82334419     0              4.1197873      14.125064    
     36000   3.1735966      0.65379204     0              3.8194546      12.135544    
     37000   2.9841954      0.67526819     0              3.6520032      12.905396    
     38000   3.0540651      0.60088305     0              3.647313       11.857703    
     39000   2.9291428      0.64055708     0              3.562377       12.143715    
     40000   2.937856       0.57541744     0              3.5059288      11.244847    
     41000   3.1130743      0.60783095     0              3.7131226      11.869469    
     42000   3.0427802      0.77997372     0              3.8151469      13.83879     
     43000   2.9028789      0.65762526     0              3.553247       12.414118    
     44000   2.6609077      0.71109376     0              3.3653492      12.613847    
     45000   2.9091465      0.55465468     0              3.4565283      10.948789    
     46000   2.828638       0.69782365     0              3.5193901      12.589435    
     47000   3.0006816      0.60329212     0              3.596472       11.763591    
     48000   2.9065904      0.61732594     0              3.5166498      11.824507    
     49000   2.8984035      0.56204097     0              3.4531984      10.919433    
     50000   2.8016115      0.74003863     0              3.5346461      12.896725    
Loop time of 1.73587 on 1 procs for 50000 steps with 400 atoms

Performance: 24886596.733 tau/day, 28803.931 timesteps/s, 11.522 Matom-step/s
99.5% CPU use with 1 MPI tasks x 1 OpenMP threads

MPI task timing breakdown:
Section |  min time  |  avg time  |  max time  |%varavg| %total
---------------------------------------------------------------
Pair    | 0.46516    | 0.46516    | 0.46516    |   0.0 | 26.80
Neigh   | 0.82629    | 0.82629    | 0.82629    |   0.0 | 47.60
Comm    | 0.088635   | 0.088635   | 0.088635   |   0.0 |  5.11
Output  | 0.00044038 | 0.00044038 | 0.00044038 |   0.0 |  0.03
Modify  | 0.25626    | 0.25626    | 0.25626    |   0.0 | 14.76
Other   |            | 0.09909    |            |       |  5.71

Nlocal:            400 ave         400 max         400 min
Histogram: 1 0 0 0 0 0 0 0 0 0
Nghost:            100 ave         100 max         100 min
Histogram: 1 0 0 0 0 0 0 0 0 0
Neighs:            780 ave         780 max         780 min
Histogram: 1 0 0 0 0 0 0 0 0 0

Total # of neighbors = 780
Ave neighs/atom = 1.95
Neighbor list builds = 16925
Dangerous builds = 0
unfix 1

# Dump settings for trajectory output
# Output the trajectory information for cooling phase in DCD format, unique file for each density
dump            1 all dcd ${thermo_time} output_density_${density}.dcd
dump            1 all dcd 1000 output_density_${density}.dcd
dump            1 all dcd 1000 output_density_0.8.dcd
dump_modify     1 unwrap yes

# Cooling phase, gradually lowering temperature to final_temperature
fix 1 all nvt temp ${initial_temperature} ${final_temperature} ${tau}
fix 1 all nvt temp 3 ${final_temperature} ${tau}
fix 1 all nvt temp 3 0.1 ${tau}
fix 1 all nvt temp 3 0.1 1
run ${run_steps}
run 100000
Generated 0 of 0 mixed pair_coeff terms from geometric mixing rule
Per MPI rank memory allocation (min/avg/max) = 3.084 | 3.084 | 3.084 Mbytes
   Step          Temp          E_pair         E_mol          TotEng         Press     
     50000   2.8016115      0.74003863     0              3.5346461      12.896725    
     51000   2.8600318      0.75791106     0              3.6107928      13.353035    
     52000   3.0156633      0.62962168     0              3.6377458      12.407258    
     53000   2.927902       0.6289332      0              3.5495154      11.744128    
     54000   2.8363524      0.66600881     0              3.4952704      12.066334    
     55000   3.0029113      0.56519817     0              3.5606022      11.242038    
     56000   2.7371531      0.61396723     0              3.3442774      11.717334    
     57000   2.758968       0.51266743     0              3.264738       10.333493    
     58000   2.466496       0.57002582     0              3.0303556      11.255075    
     59000   2.7786631      0.53160805     0              3.3033245      10.98562     
     60000   2.5555042      0.74336986     0              3.2924853      13.460054    
     61000   2.7630459      0.58392956     0              3.3400679      11.223786    
     62000   2.7470596      0.58368679     0              3.3238787      10.950692    
     63000   2.700356       0.56377504     0              3.2573801      10.769152    
     64000   2.5769823      0.68124013     0              3.25178        11.936547    
     65000   2.8162775      0.49030452     0              3.2995413      10.590129    
     66000   2.5483941      0.61146897     0              3.1534921      11.622421    
     67000   2.8323852      0.60894844     0              3.4342527      11.506007    
     68000   2.7236923      0.43196398     0              3.1488471      9.4812449    
     69000   2.4620318      0.52608717     0              2.9819639      10.604085    
     70000   2.343937       0.52711885     0              2.865196       10.165194    
     71000   2.3085956      0.58679943     0              2.8896235      10.952749    
     72000   2.3760623      0.4808327      0              2.8509548      9.9568697    
     73000   2.3299665      0.47218535     0              2.7963269      9.7025624    
     74000   2.5204179      0.52892437     0              3.0430413      10.376665    
     75000   2.404665       0.43318661     0              2.8318399      8.9437386    
     76000   2.2529078      0.55630405     0              2.8035796      10.684254    
     77000   2.3703827      0.46886662     0              2.8333234      9.5652172    
     78000   2.2375802      0.54879687     0              2.7807832      10.352545    
     79000   2.3055905      0.46753297     0              2.7673595      9.7828407    
     80000   2.3197929      0.47589728     0              2.7898907      9.8880239    
     81000   2.2424835      0.38955407     0              2.6264313      8.3465536    
     82000   2.2183793      0.37889074     0              2.5917241      8.8682418    
     83000   2.1326436      0.417466       0              2.544778       8.7452523    
     84000   1.8635566      0.43349889     0              2.2923966      8.7763025    
     85000   1.9264062      0.40243403     0              2.3240242      8.4678747    
     86000   1.8187754      0.39574488     0              2.2099734      8.5289344    
     87000   1.8405622      0.37915121     0              2.2151121      7.8376155    
     88000   1.8490432      0.37353481     0              2.2179554      8.0443423    
     89000   1.7663457      0.37455033     0              2.1364802      8.0180234    
     90000   1.7509307      0.3105036      0              2.0570569      7.1076835    
     91000   1.7278945      0.41810133     0              2.141676       8.6128568    
     92000   1.8231941      0.33131663     0              2.1499527      7.8342608    
     93000   1.7906499      0.34562822     0              2.1318015      7.8685985    
     94000   1.6956917      0.43208001     0              2.1235325      8.7374053    
     95000   1.7605103      0.34643613     0              2.1025452      7.6708326    
     96000   1.7680969      0.33551647     0              2.0991931      7.8674294    
     97000   1.712245       0.34582426     0              2.0537886      7.5931991    
     98000   1.7157426      0.23683601     0              1.9482892      6.2426221    
     99000   1.7791277      0.33278998     0              2.1074699      7.600376     
    100000   1.5937536      0.34506898     0              1.9348382      7.5144402    
    101000   1.5550604      0.29384316     0              1.8450159      6.9176812    
    102000   1.6680993      0.32943274     0              1.9933618      7.3518253    
    103000   1.5270508      0.29192443     0              1.8151576      6.7713856    
    104000   1.4475937      0.34194281     0              1.7859175      7.3435297    
    105000   1.5556283      0.28191007     0              1.8336493      6.6104154    
    106000   1.4067588      0.26654062     0              1.6697825      6.3840117    
    107000   1.4324065      0.30657935     0              1.7354049      7.1753469    
    108000   1.3277729      0.25048375     0              1.5749372      5.9357455    
    109000   1.3162732      0.23118734     0              1.5441698      5.9735376    
    110000   1.2510425      0.25727784     0              1.5051928      6.1086681    
    111000   1.3598714      0.21397578     0              1.5704475      5.7764363    
    112000   1.264904       0.27075595     0              1.5324977      6.486912     
    113000   1.24272        0.20067945     0              1.4402927      5.138774     
    114000   1.2223734      0.19299158     0              1.4123091      5.1468351    
    115000   1.2111014      0.17421001     0              1.3822837      4.7608351    
    116000   1.092215       0.22033824     0              1.3098227      5.3961347    
    117000   1.0603938      0.22213231     0              1.2798752      5.4156269    
    118000   1.0253203      0.20490768     0              1.2276647      5.2811502    
    119000   1.0162442      0.20530133     0              1.219005       5.2186639    
    120000   1.0563472      0.16509581     0              1.2188021      4.5291037    
    121000   0.92301329     0.1874212      0              1.108127       4.9047323    
    122000   0.92974947     0.12037536     0              1.0478005      3.7912555    
    123000   0.88098688     0.14561353     0              1.0243979      4.0124766    
    124000   0.94134719     0.19144297     0              1.1304368      4.8761185    
    125000   0.79357839     0.1815981      0              0.97319254     4.6408779    
    126000   0.77512207     0.15364777     0              0.92683203     4.327568     
    127000   0.76886132     0.15213669     0              0.91907586     3.9736708    
    128000   0.73624078     0.11418806     0              0.84858824     3.3963879    
    129000   0.67494013     0.12240672     0              0.7956595      3.6243467    
    130000   0.65747128     0.11939532     0              0.77522293     3.5245848    
    131000   0.66132618     0.098585798    0              0.75825866     3.0732405    
    132000   0.61178998     0.08269232     0              0.69295282     2.819896     
    133000   0.53935297     0.082279708    0              0.6202843      2.6139008    
    134000   0.54574451     0.092399508    0              0.63677966     2.9091696    
    135000   0.53536978     0.08553914     0              0.61957049     2.6595791    
    136000   0.5308295      0.059923572    0              0.589426       2.2175598    
    137000   0.45953399     0.059039534    0              0.51742469     2.13921      
    138000   0.45505242     0.064470184    0              0.51838497     2.2499509    
    139000   0.39443347     0.061653047    0              0.45510044     2.1920797    
    140000   0.38129602     0.055845022    0              0.43618781     2.0427162    
    141000   0.32187092     0.053653914    0              0.37472016     1.9753154    
    142000   0.32782952     0.036609299    0              0.36361924     1.4897662    
    143000   0.29580574     0.031783413    0              0.32684963     1.421732     
    144000   0.26615696     0.033963396    0              0.29945496     1.534253     
    145000   0.25859085     0.02641334     0              0.28435771     1.3173187    
    146000   0.22109018     0.027894015    0              0.24843147     1.2247438    
    147000   0.19972542     0.011623499    0              0.2108496      0.80025424   
    148000   0.1528308      0.021753923    0              0.17420265     1.0310358    
    149000   0.12963325     0.0096040504   0              0.13891321     0.64110523   
    150000   0.099748193    0.0079598109   0              0.10745863     0.57568984   
Loop time of 2.84575 on 1 procs for 100000 steps with 400 atoms

Performance: 30361096.198 tau/day, 35140.158 timesteps/s, 14.056 Matom-step/s
99.6% CPU use with 1 MPI tasks x 1 OpenMP threads

MPI task timing breakdown:
Section |  min time  |  avg time  |  max time  |%varavg| %total
---------------------------------------------------------------
Pair    | 0.82248    | 0.82248    | 0.82248    |   0.0 | 28.90
Neigh   | 1.1901     | 1.1901     | 1.1901     |   0.0 | 41.82
Comm    | 0.14102    | 0.14102    | 0.14102    |   0.0 |  4.96
Output  | 0.0034692  | 0.0034692  | 0.0034692  |   0.0 |  0.12
Modify  | 0.51547    | 0.51547    | 0.51547    |   0.0 | 18.11
Other   |            | 0.1732     |            |       |  6.09

Nlocal:            400 ave         400 max         400 min
Histogram: 1 0 0 0 0 0 0 0 0 0
Nghost:            104 ave         104 max         104 min
Histogram: 1 0 0 0 0 0 0 0 0 0
Neighs:            837 ave         837 max         837 min
Histogram: 1 0 0 0 0 0 0 0 0 0

Total # of neighbors = 837
Ave neighs/atom = 2.0925
Neighbor list builds = 24412
Dangerous builds = 0
unfix 1
undump 1

Total wall time: 0:00:04
