LAMMPS (15 Sep 2022)
OMP_NUM_THREADS environment is not set. Defaulting to 1 thread. (src/comm.cpp:98)
  using 1 OpenMP thread(s) per MPI task
# 2D WCA system, random initial configuration

# Parameter settings
variable initial_temperature equal 3.0
variable final_temperature equal 0.1
variable dt equal 0.01
variable tau equal 100*${dt}
variable tau equal 100*0.01
variable thermo_time equal 1000       # Set to a smaller interval to ensure frequent DCD output
variable equil_steps equal 50000
variable run_steps equal 100000

units           lj
atom_style      atomic
dimension       2

# Define lattice and region
lattice         sq ${density}
lattice         sq 0.9
Lattice spacing in x,y,z = 1.0540926 1.0540926 1.0540926
region          box block 0 20 0 20 -0.5 0.5
create_box      1 box
Created orthogonal box = (0 0 -0.52704628) to (21.081851 21.081851 0.52704628)
  1 by 1 by 1 MPI processor grid
create_atoms    1 box
Created 400 atoms
  using lattice units in orthogonal box = (0 0 -0.52704628) to (21.081851 21.081851 0.52704628)
  create_atoms CPU = 0.000 seconds
mass 1 1.0  # Set mass for the original atom type

# Set initial velocity
velocity all create ${initial_temperature} 12345
velocity all create 3 12345

# Define interactions
pair_style      lj/cut 1.0
pair_coeff      1 1 10.0 0.89089871814 1.0  # Original Lennard-Jones parameters
pair_modify shift yes

# Simulation parameters
timestep        ${dt}
timestep        0.01
thermo          ${thermo_time}
thermo          1000

# High-temperature equilibration phase
fix 1 all nvt temp ${initial_temperature} ${initial_temperature} ${tau}
fix 1 all nvt temp 3 ${initial_temperature} ${tau}
fix 1 all nvt temp 3 3 ${tau}
fix 1 all nvt temp 3 3 1
run ${equil_steps}
run 50000
Generated 0 of 0 mixed pair_coeff terms from geometric mixing rule
Neighbor list info ...
  update: every = 1 steps, delay = 0 steps, check = yes
  max neighbors/atom: 2000, page size: 100000
  master list distance cutoff = 1.3
  ghost atom cutoff = 1.3
  binsize = 0.65, bins = 33 33 2
  1 neighbor lists, perpetual/occasional/extra = 1 0 0
  (1) pair lj/cut, perpetual
      attributes: half, newton on
      pair build: half/bin/atomonly/newton
      stencil: half/bin/2d
      bin: standard
Per MPI rank memory allocation (min/avg/max) = 3.056 | 3.056 | 3.056 Mbytes
   Step          Temp          E_pair         E_mol          TotEng         Press     
         0   3              0              0              2.9925         2.69325      
      1000   2.8761344      0.99262886     0              3.861573       19.601465    
      2000   2.8407368      1.1141085      0              3.9477435      20.150748    
      3000   3.1776844      0.92498553     0              4.0947257      18.96654     
      4000   3.0461389      1.0680339      0              4.1065575      20.011427    
      5000   3.2284542      0.99703235     0              4.2174154      19.420956    
      6000   3.0520341      1.0183744      0              4.0627784      19.5195      
      7000   3.1478611      1.1016717      0              4.2416631      20.742807    
      8000   2.9359204      1.1451347      0              4.0737152      20.738869    
      9000   2.8965108      1.0215734      0              3.9108429      19.166925    
     10000   2.7376848      1.1085561      0              3.8393966      20.504576    
     11000   2.8329827      1.1033108      0              3.9292111      20.508585    
     12000   2.7940959      1.0668214      0              3.8539321      19.906846    
     13000   2.9816721      0.95336315     0              3.9275811      18.610169    
     14000   3.0242402      0.92066785     0              3.9373474      18.605707    
     15000   2.997062       0.88172469     0              3.8712941      17.569247    
     16000   2.964104       1.0619707      0              4.0186644      20.154649    
     17000   3.0860904      0.83827172     0              3.9166469      17.575938    
     18000   2.7486593      1.0542794      0              3.7960671      20.324209    
     19000   2.8740566      0.8929802      0              3.7598516      17.835595    
     20000   2.9758367      1.0592488      0              4.027646       19.823535    
     21000   3.5169359      0.94863489     0              4.4567784      18.968306    
     22000   2.9406142      1.0272934      0              3.960556       19.430567    
     23000   2.916127       1.0629055      0              3.9717422      20.037206    
     24000   2.7516307      1.051958       0              3.7967096      19.892057    
     25000   3.0969017      1.0651802      0              4.1543397      20.187464    
     26000   3.0031483      1.1134492      0              4.1090896      20.493662    
     27000   3.0394214      0.98321911     0              4.0150419      19.320157    
     28000   3.2512323      1.0944591      0              4.3375633      20.889211    
     29000   3.2542358      0.89703793     0              4.1431382      18.524348    
     30000   3.3198223      0.90312949     0              4.2146522      18.771501    
     31000   2.9370389      1.1738469      0              4.1035432      20.820472    
     32000   3.2471699      1.1105471      0              4.3495991      20.770417    
     33000   3.1842585      1.0089982      0              4.1852961      19.449418    
     34000   3.2351737      0.89339779     0              4.1204836      17.94535     
     35000   3.0251299      1.0717291      0              4.0892962      20.625306    
     36000   3.1508446      1.3523501      0              4.4953176      22.985774    
     37000   3.237432       0.96966398     0              4.1990024      18.248093    
     38000   2.9509001      0.88504442     0              3.8285673      17.911425    
     39000   3.2121544      1.1041023      0              4.3082263      21.355467    
     40000   3.1107068      0.94420317     0              4.0471332      18.286913    
     41000   2.9789239      1.0520277      0              4.0235043      19.819374    
     42000   2.8537907      0.90427789     0              3.7509341      18.84143     
     43000   2.8955288      0.85779557     0              3.7460855      17.34607     
     44000   2.9783641      0.92741768     0              3.8983359      18.451039    
     45000   3.0134655      0.97545019     0              3.981382       18.759468    
     46000   3.0043606      0.87616999     0              3.8730197      17.649525    
     47000   3.05546        1.0529551      0              4.1007764      19.817089    
     48000   3.2508384      0.97294863     0              4.21566        19.434463    
     49000   2.9802227      1.0953132      0              4.0680854      20.83299     
     50000   3.0984576      1.0248756      0              4.115587       19.825633    
Loop time of 1.90909 on 1 procs for 50000 steps with 400 atoms

Performance: 22628542.733 tau/day, 26190.443 timesteps/s, 10.476 Matom-step/s
99.5% CPU use with 1 MPI tasks x 1 OpenMP threads

MPI task timing breakdown:
Section |  min time  |  avg time  |  max time  |%varavg| %total
---------------------------------------------------------------
Pair    | 0.57561    | 0.57561    | 0.57561    |   0.0 | 30.15
Neigh   | 0.8855     | 0.8855     | 0.8855     |   0.0 | 46.38
Comm    | 0.091349   | 0.091349   | 0.091349   |   0.0 |  4.78
Output  | 0.0004628  | 0.0004628  | 0.0004628  |   0.0 |  0.02
Modify  | 0.2574     | 0.2574     | 0.2574     |   0.0 | 13.48
Other   |            | 0.09877    |            |       |  5.17

Nlocal:            400 ave         400 max         400 min
Histogram: 1 0 0 0 0 0 0 0 0 0
Nghost:            106 ave         106 max         106 min
Histogram: 1 0 0 0 0 0 0 0 0 0
Neighs:            926 ave         926 max         926 min
Histogram: 1 0 0 0 0 0 0 0 0 0

Total # of neighbors = 926
Ave neighs/atom = 2.315
Neighbor list builds = 16876
Dangerous builds = 0
unfix 1

# Dump settings for trajectory output
# Output the trajectory information for cooling phase in DCD format, unique file for each density
dump            1 all dcd ${thermo_time} output_density_${density}.dcd
dump            1 all dcd 1000 output_density_${density}.dcd
dump            1 all dcd 1000 output_density_0.9.dcd
dump_modify     1 unwrap yes

# Cooling phase, gradually lowering temperature to final_temperature
fix 1 all nvt temp ${initial_temperature} ${final_temperature} ${tau}
fix 1 all nvt temp 3 ${final_temperature} ${tau}
fix 1 all nvt temp 3 0.1 ${tau}
fix 1 all nvt temp 3 0.1 1
run ${run_steps}
run 100000
Generated 0 of 0 mixed pair_coeff terms from geometric mixing rule
Per MPI rank memory allocation (min/avg/max) = 3.083 | 3.083 | 3.083 Mbytes
   Step          Temp          E_pair         E_mol          TotEng         Press     
     50000   3.0984576      1.0248756      0              4.115587       19.825633    
     51000   3.3158834      1.0793101      0              4.3869038      20.799414    
     52000   2.9719707      0.88001385     0              3.8445547      18.031196    
     53000   2.680798       1.0012339      0              3.6753299      18.678784    
     54000   2.8857914      0.95387079     0              3.8324477      19.348456    
     55000   2.9889147      0.97619611     0              3.9576386      19.102028    
     56000   3.0591224      0.85264421     0              3.9041188      17.832133    
     57000   2.9858959      1.0983931      0              4.0768243      20.521526    
     58000   2.9928578      0.87411872     0              3.8594943      17.980352    
     59000   2.714655       1.1228666      0              3.8307349      21.140084    
     60000   2.7922886      0.89584151     0              3.6811493      18.255651    
     61000   2.7725102      0.95572133     0              3.7213002      18.617384    
     62000   2.7073183      0.96541374     0              3.6659637      18.706241    
     63000   2.6773103      0.93988535     0              3.6105023      18.153959    
     64000   2.7091589      0.95669403     0              3.65908        18.651285    
     65000   2.3980935      1.1078446      0              3.4999429      19.956688    
     66000   2.6814461      0.93339731     0              3.6081398      18.312918    
     67000   2.65683        0.77696277     0              3.4271507      16.271024    
     68000   2.2447618      0.70752073     0              2.9466706      14.634986    
     69000   2.3622582      0.76941962     0              3.1257722      16.157181    
     70000   2.3457421      0.74000141     0              3.0798792      15.385676    
     71000   2.2774154      0.81231551     0              3.0840373      16.097432    
     72000   2.2491371      0.7500003      0              2.9935145      15.972594    
     73000   2.3180356      0.63455806     0              2.9467986      14.303636    
     74000   2.2508071      0.80748465     0              3.0526647      16.274768    
     75000   2.2165044      0.80660273     0              3.0175659      15.985005    
     76000   2.3704768      0.63606943     0              3.0006201      14.293587    
     77000   2.3690067      0.69172069     0              3.0548048      15.026659    
     78000   2.1742185      0.74599289     0              2.9147758      15.706812    
     79000   2.1191382      0.67716616     0              2.7910065      14.523774    
     80000   2.0939545      0.75809924     0              2.8468189      15.88339     
     81000   2.0129066      0.79807076     0              2.8059451      16.362861    
     82000   2.2095449      0.59622322     0              2.8002442      13.918897    
     83000   1.9949932      0.77790351     0              2.7679092      15.784826    
     84000   2.1218762      0.55976594     0              2.6763374      12.66667     
     85000   1.967145       0.65594607     0              2.6181732      14.360634    
     86000   1.9044475      0.60664118     0              2.5063275      13.32791     
     87000   1.9950006      0.52089797     0              2.510911       11.88803     
     88000   1.8239839      0.48679517     0              2.3062191      11.791471    
     89000   1.8061381      0.60531553     0              2.4069383      13.390082    
     90000   1.8710361      0.53915428     0              2.4055128      12.500873    
     91000   1.8516221      0.53406926     0              2.3810623      12.72042     
     92000   1.9677741      0.4667248      0              2.4295795      11.611616    
     93000   1.8919849      0.54702059     0              2.4342755      12.848512    
     94000   1.7547484      0.64142865     0              2.3917902      13.660639    
     95000   1.8548153      0.42668141     0              2.2768597      10.930275    
     96000   1.7357781      0.4599874      0              2.191426       10.992175    
     97000   1.6329232      0.50015628     0              2.1289971      11.728453    
     98000   1.5933457      0.55351652     0              2.1428788      12.425699    
     99000   1.5774708      0.50086625     0              2.0743933      11.780841    
    100000   1.5575065      0.45014229     0              2.003755       10.982394    
    101000   1.5150588      0.4406154      0              1.9518865      10.631061    
    102000   1.6141432      0.4153558      0              2.0254636      10.295158    
    103000   1.4721112      0.51817379     0              1.9866047      11.813135    
    104000   1.4772411      0.36266357     0              1.8362115      9.4763249    
    105000   1.4232805      0.42530151     0              1.8450238      10.204651    
    106000   1.4034331      0.48979333     0              1.8897178      11.538202    
    107000   1.2883529      0.36124356     0              1.6463756      9.4945642    
    108000   1.2271495      0.37718961     0              1.6012712      9.5399897    
    109000   1.25536        0.37913359     0              1.6313552      9.3086797    
    110000   1.192417       0.31141645     0              1.5008524      8.5169178    
    111000   1.1348322      0.37106186     0              1.503057       9.3021409    
    112000   1.2643141      0.27461729     0              1.5357706      8.0923738    
    113000   1.1731567      0.29807419     0              1.468298       8.2709443    
    114000   1.0814767      0.25112147     0              1.3298945      7.1854578    
    115000   1.1034847      0.29965805     0              1.400384       8.4072075    
    116000   1.0829921      0.26327056     0              1.3435552      7.7532539    
    117000   1.0262893      0.32325945     0              1.346983       8.338904     
    118000   1.1750605      0.30515492     0              1.4772778      8.5825616    
    119000   1.0827249      0.2339377      0              1.3139558      7.1662577    
    120000   1.0069135      0.30332711     0              1.3077234      8.1095321    
    121000   0.9726822      0.26892838     0              1.2391789      7.5290798    
    122000   0.91216169     0.28893328     0              1.1988146      7.820663     
    123000   0.88332646     0.21445652     0              1.0955747      6.710252     
    124000   0.8711394      0.26714162     0              1.1361032      7.2875362    
    125000   0.86756831     0.18658796     0              1.0519874      5.9526295    
    126000   0.79431719     0.1981587      0              0.99049009     6.1103739    
    127000   0.75163743     0.20033302     0              0.95009135     6.2089452    
    128000   0.70401357     0.17949701     0              0.88175054     5.6383738    
    129000   0.66147141     0.16928275     0              0.82910049     5.3853572    
    130000   0.72701316     0.17774197     0              0.90293759     5.606827     
    131000   0.69423469     0.13241103     0              0.82491014     4.7450958    
    132000   0.66723726     0.18098704     0              0.84655621     5.659463     
    133000   0.62155498     0.12465837     0              0.74465946     4.4487846    
    134000   0.59548207     0.1087208      0              0.70271416     4.0633218    
    135000   0.55545231     0.094686409    0              0.64875009     3.8355989    
    136000   0.50511164     0.10947212     0              0.61332098     4.0141234    
    137000   0.50287704     0.10169063     0              0.60331048     3.8638979    
    138000   0.46617539     0.12801016     0              0.59302011     4.4479718    
    139000   0.43728214     0.10931672     0              0.54550566     3.7748742    
    140000   0.40485091     0.094745715    0              0.4985845      3.4886268    
    141000   0.37994213     0.070932159    0              0.44992444     3.0010094    
    142000   0.33276528     0.064786856    0              0.39672023     2.9202275    
    143000   0.2886933      0.060390987    0              0.34836255     2.6127257    
    144000   0.26855049     0.033234044    0              0.30111316     1.8987572    
    145000   0.23704375     0.037086319    0              0.27353746     1.9917756    
    146000   0.21936229     0.028918166    0              0.24773205     1.6715062    
    147000   0.19032323     0.026542084    0              0.21638951     1.5966058    
    148000   0.16048745     0.028230539    0              0.18831677     1.6651301    
    149000   0.14620704     0.020262225    0              0.16610375     1.2298017    
    150000   0.1122011      0.012310715    0              0.12423131     0.88071781   
Loop time of 3.12551 on 1 procs for 100000 steps with 400 atoms

Performance: 27643494.031 tau/day, 31994.785 timesteps/s, 12.798 Matom-step/s
99.4% CPU use with 1 MPI tasks x 1 OpenMP threads

MPI task timing breakdown:
Section |  min time  |  avg time  |  max time  |%varavg| %total
---------------------------------------------------------------
Pair    | 1.0276     | 1.0276     | 1.0276     |   0.0 | 32.88
Neigh   | 1.2649     | 1.2649     | 1.2649     |   0.0 | 40.47
Comm    | 0.1448     | 0.1448     | 0.1448     |   0.0 |  4.63
Output  | 0.0034415  | 0.0034415  | 0.0034415  |   0.0 |  0.11
Modify  | 0.51385    | 0.51385    | 0.51385    |   0.0 | 16.44
Other   |            | 0.1709     |            |       |  5.47

Nlocal:            400 ave         400 max         400 min
Histogram: 1 0 0 0 0 0 0 0 0 0
Nghost:            100 ave         100 max         100 min
Histogram: 1 0 0 0 0 0 0 0 0 0
Neighs:            992 ave         992 max         992 min
Histogram: 1 0 0 0 0 0 0 0 0 0

Total # of neighbors = 992
Ave neighs/atom = 2.48
Neighbor list builds = 24241
Dangerous builds = 0
unfix 1
undump 1

Total wall time: 0:00:05
