LAMMPS (15 Sep 2022)
OMP_NUM_THREADS environment is not set. Defaulting to 1 thread. (src/comm.cpp:98)
  using 1 OpenMP thread(s) per MPI task
# 2D WCA system, random initial configuration

# Parameter settings
variable initial_temperature equal 3.0
variable final_temperature equal 0.1
variable dt equal 0.01
variable tau equal 100*${dt}
variable tau equal 100*0.01
variable thermo_time equal 1000       # Set to a smaller interval to ensure frequent DCD output
variable equil_steps equal 50000
variable run_steps equal 100000

units           lj
atom_style      atomic
dimension       2

# Define lattice and region
lattice         sq ${density}
lattice         sq 0.5
Lattice spacing in x,y,z = 1.4142136 1.4142136 1.4142136
region          box block 0 20 0 20 -0.5 0.5
create_box      1 box
Created orthogonal box = (0 0 -0.70710678) to (28.284271 28.284271 0.70710678)
  1 by 1 by 1 MPI processor grid
create_atoms    1 box
Created 400 atoms
  using lattice units in orthogonal box = (0 0 -0.70710678) to (28.284271 28.284271 0.70710678)
  create_atoms CPU = 0.000 seconds
mass 1 1.0  # Set mass for the original atom type

# Set initial velocity
velocity all create ${initial_temperature} 12345
velocity all create 3 12345

# Define interactions
pair_style      lj/cut 1.0
pair_coeff      1 1 10.0 0.89089871814 1.0  # Original Lennard-Jones parameters
pair_modify shift yes

# Simulation parameters
timestep        ${dt}
timestep        0.01
thermo          ${thermo_time}
thermo          1000

# High-temperature equilibration phase
fix 1 all nvt temp ${initial_temperature} ${initial_temperature} ${tau}
fix 1 all nvt temp 3 ${initial_temperature} ${tau}
fix 1 all nvt temp 3 3 ${tau}
fix 1 all nvt temp 3 3 1
run ${equil_steps}
run 50000
Generated 0 of 0 mixed pair_coeff terms from geometric mixing rule
Neighbor list info ...
  update: every = 1 steps, delay = 0 steps, check = yes
  max neighbors/atom: 2000, page size: 100000
  master list distance cutoff = 1.3
  ghost atom cutoff = 1.3
  binsize = 0.65, bins = 44 44 3
  1 neighbor lists, perpetual/occasional/extra = 1 0 0
  (1) pair lj/cut, perpetual
      attributes: half, newton on
      pair build: half/bin/atomonly/newton
      stencil: half/bin/2d
      bin: standard
Per MPI rank memory allocation (min/avg/max) = 3.059 | 3.059 | 3.059 Mbytes
   Step          Temp          E_pair         E_mol          TotEng         Press     
         0   3              0              0              2.9925         1.49625      
      1000   2.9554954      0.18919294     0              3.1372996      3.3695108    
      2000   3.0445624      0.16606975     0              3.2030208      3.2476158    
      3000   3.0705945      0.27415638     0              3.3370744      4.0243846    
      4000   3.2447777      0.14917964     0              3.3858454      3.1393301    
      5000   3.0312056      0.25920654     0              3.2828341      3.9737283    
      6000   2.6891934      0.19782176     0              2.8802922      3.1995931    
      7000   2.8944651      0.18778243     0              3.0750113      3.2921635    
      8000   2.9513047      0.19090349     0              3.1348299      3.4507879    
      9000   3.0613623      0.2313815      0              3.2850904      3.7208023    
     10000   3.2005522      0.25930987     0              3.4518607      4.1318294    
     11000   3.1981848      0.18544045     0              3.3756297      3.5082046    
     12000   2.8221965      0.29313913     0              3.1082802      4.2133888    
     13000   2.8472739      0.17895194     0              3.0191077      3.1961286    
     14000   2.898176       0.22985494     0              3.1207855      3.65177      
     15000   2.8618252      0.25762747     0              3.1122981      3.9147854    
     16000   3.294741       0.20182454     0              3.4883286      3.5637176    
     17000   3.0959155      0.14276601     0              3.2309417      3.1178002    
     18000   3.0543185      0.14905392     0              3.1957366      3.0999473    
     19000   2.8859166      0.18280774     0              3.0615095      3.228022     
     20000   3.3624522      0.22198126     0              3.5760273      3.8203383    
     21000   2.9986304      0.20730678     0              3.1984406      3.5756866    
     22000   3.0224068      0.18824208     0              3.2030928      3.5039782    
     23000   2.8896968      0.22493943     0              3.107412       3.5902767    
     24000   2.9902137      0.14524076     0              3.1279789      2.910067     
     25000   3.1863633      0.12517636     0              3.3035737      2.9271279    
     26000   3.1380973      0.14632185     0              3.2765739      3.2476133    
     27000   3.1682345      0.23221434     0              3.3925282      3.8926011    
     28000   2.759403       0.31866309     0              3.0711675      4.1174539    
     29000   2.9659473      0.17401037     0              3.1325428      3.1715734    
     30000   3.0463289      0.17759059     0              3.2163036      3.5299759    
     31000   2.9602996      0.17689089     0              3.1297897      3.4142653    
     32000   2.9416803      0.17483849     0              3.1091646      3.2356588    
     33000   3.05845        0.21237148     0              3.2631754      3.576901     
     34000   3.003152       0.36196429     0              3.3576084      4.5798308    
     35000   3.0913743      0.1461876      0              3.2298335      3.1855076    
     36000   2.8541556      0.19516215     0              3.0421824      3.362676     
     37000   2.8800312      0.19681086     0              3.0696419      3.3894222    
     38000   2.7742866      0.22677877     0              2.9941297      3.5540562    
     39000   2.9638193      0.14201427     0              3.098424       2.8933844    
     40000   3.0140163      0.19155554     0              3.1980368      3.3861469    
     41000   3.0049863      0.24489285     0              3.2423667      3.8211234    
     42000   3.2392242      0.18269241     0              3.4138185      3.4694825    
     43000   2.9101142      0.28218128     0              3.1850202      3.9730225    
     44000   2.9347068      0.19886705     0              3.1262371      3.4822348    
     45000   2.8230941      0.17895317     0              2.9949896      3.3686827    
     46000   2.9308027      0.20018746     0              3.1236631      3.3845342    
     47000   3.1575153      0.24884479     0              3.3984663      3.9517699    
     48000   3.0445189      0.16744816     0              3.2043558      3.1577242    
     49000   2.7981041      0.21555655     0              3.0066654      3.4249258    
     50000   2.9194784      0.14031734     0              3.052497       2.9171861    
Loop time of 1.34074 on 1 procs for 50000 steps with 400 atoms

Performance: 32221048.133 tau/day, 37292.880 timesteps/s, 14.917 Matom-step/s
99.4% CPU use with 1 MPI tasks x 1 OpenMP threads

MPI task timing breakdown:
Section |  min time  |  avg time  |  max time  |%varavg| %total
---------------------------------------------------------------
Pair    | 0.27574    | 0.27574    | 0.27574    |   0.0 | 20.57
Neigh   | 0.62607    | 0.62607    | 0.62607    |   0.0 | 46.70
Comm    | 0.079208   | 0.079208   | 0.079208   |   0.0 |  5.91
Output  | 0.0004045  | 0.0004045  | 0.0004045  |   0.0 |  0.03
Modify  | 0.26083    | 0.26083    | 0.26083    |   0.0 | 19.45
Other   |            | 0.09849    |            |       |  7.35

Nlocal:            400 ave         400 max         400 min
Histogram: 1 0 0 0 0 0 0 0 0 0
Nghost:             75 ave          75 max          75 min
Histogram: 1 0 0 0 0 0 0 0 0 0
Neighs:            370 ave         370 max         370 min
Histogram: 1 0 0 0 0 0 0 0 0 0

Total # of neighbors = 370
Ave neighs/atom = 0.925
Neighbor list builds = 16894
Dangerous builds = 0
unfix 1

# Dump settings for trajectory output
# Output the trajectory information for cooling phase in DCD format, unique file for each density
dump            1 all dcd ${thermo_time} output_density_${density}.dcd
dump            1 all dcd 1000 output_density_${density}.dcd
dump            1 all dcd 1000 output_density_0.5.dcd
dump_modify     1 unwrap yes

# Cooling phase, gradually lowering temperature to final_temperature
fix 1 all nvt temp ${initial_temperature} ${final_temperature} ${tau}
fix 1 all nvt temp 3 ${final_temperature} ${tau}
fix 1 all nvt temp 3 0.1 ${tau}
fix 1 all nvt temp 3 0.1 1
run ${run_steps}
run 100000
Generated 0 of 0 mixed pair_coeff terms from geometric mixing rule
Per MPI rank memory allocation (min/avg/max) = 3.086 | 3.086 | 3.086 Mbytes
   Step          Temp          E_pair         E_mol          TotEng         Press     
     50000   2.9194784      0.14031734     0              3.052497       2.9171861    
     51000   3.0208303      0.19877168     0              3.2120499      3.4420916    
     52000   3.0845568      0.16233484     0              3.2391803      3.1225087    
     53000   3.061155       0.19965882     0              3.2531609      3.5529146    
     54000   2.8518523      0.20518009     0              3.0499027      3.4778559    
     55000   2.5628468      0.16090241     0              2.7173421      3.039111     
     56000   2.7536306      0.2587044      0              3.0054509      3.6080938    
     57000   3.1164342      0.12956915     0              3.2382122      3.072875     
     58000   2.9093371      0.23434482     0              3.1364086      3.6507332    
     59000   2.8615592      0.20457419     0              3.0589795      3.3982159    
     60000   2.9950013      0.17398591     0              3.1614997      3.1631997    
     61000   2.569545       0.19201467     0              2.7551358      3.3214244    
     62000   2.6710731      0.13137745     0              2.7957728      2.7983313    
     63000   2.3272532      0.13587245     0              2.4573075      2.7447323    
     64000   2.6207184      0.13303303     0              2.7471996      2.8015788    
     65000   2.8516236      0.14873642     0              2.993231       3.0154744    
     66000   2.6237029      0.13166017     0              2.7488039      2.8151963    
     67000   2.5618427      0.14498294     0              2.7004211      2.7796884    
     68000   2.2225715      0.15915778     0              2.3761729      2.8460825    
     69000   2.3504136      0.18615387     0              2.5306914      2.9943233    
     70000   2.4479858      0.13648821     0              2.5783541      2.7750669    
     71000   2.5080347      0.14555544     0              2.6473201      2.8743097    
     72000   2.618183       0.16871332     0              2.7803509      3.0656594    
     73000   2.3334711      0.12998742     0              2.4576248      2.7295755    
     74000   2.271482       0.15837041     0              2.4241737      2.754193     
     75000   2.0444035      0.17262772     0              2.2119202      2.8311969    
     76000   2.2443738      0.18797051     0              2.4267333      3.0138534    
     77000   2.3887472      0.18871677     0              2.5714921      3.2628698    
     78000   2.1247505      0.14634422     0              2.2657828      2.7254843    
     79000   2.1468988      0.11172468     0              2.2532562      2.3590495    
     80000   2.1779679      0.12506867     0              2.2975916      2.5082958    
     81000   2.2351988      0.086431818    0              2.3160426      2.2223699    
     82000   2.0466399      0.15363219     0              2.1951555      2.6664875    
     83000   1.9658099      0.13436786     0              2.0952633      2.4384621    
     84000   2.0253526      0.1127537      0              2.1330429      2.308637     
     85000   2.2287859      0.15514701     0              2.378361       2.7164744    
     86000   1.9925905      0.16034833     0              2.1479574      2.6594267    
     87000   1.9057712      0.13344922     0              2.034456       2.3395794    
     88000   1.7800955      0.11764501     0              1.8932903      2.2715109    
     89000   1.7911551      0.11772965     0              1.9044068      2.170801     
     90000   1.7844506      0.16930179     0              1.9492913      2.6229461    
     91000   1.924111       0.11405776     0              2.0333584      2.2723509    
     92000   1.812192       0.11857947     0              1.926241       2.183624     
     93000   1.7306487      0.070427198    0              1.7967493      1.8461328    
     94000   1.6618716      0.11551563     0              1.7732326      2.1508954    
     95000   1.6812763      0.095687341    0              1.7727604      1.8998979    
     96000   1.7542837      0.10268604     0              1.852584       2.1283851    
     97000   1.6860306      0.074469937    0              1.7562854      1.7981902    
     98000   1.5083038      0.099586423    0              1.6041195      1.8026401    
     99000   1.4833573      0.11914529     0              1.5987942      2.0937017    
    100000   1.5443713      0.078441388    0              1.6189517      1.7294333    
    101000   1.6133292      0.06168092     0              1.6709768      1.7337107    
    102000   1.4467757      0.074087315    0              1.5172461      1.7296847    
    103000   1.3035361      0.11176748     0              1.4120448      1.9164765    
    104000   1.4402017      0.059919514    0              1.4965207      1.6306459    
    105000   1.4224811      0.06921941     0              1.4881443      1.5445395    
    106000   1.4412499      0.080743119    0              1.5183899      1.7307837    
    107000   1.402036       0.12726269     0              1.5257936      2.1527454    
    108000   1.2206633      0.11213748     0              1.3297491      1.8488703    
    109000   1.2478499      0.086994651    0              1.331725       1.6680336    
    110000   1.2506005      0.077159216    0              1.3246332      1.5806462    
    111000   1.3814201      0.086799793    0              1.4647663      1.7127854    
    112000   1.2212315      0.054358707    0              1.2725371      1.3425101    
    113000   1.1608564      0.059122924    0              1.2170771      1.3939183    
    114000   1.1360237      0.04686303     0              1.1800467      1.2809711    
    115000   1.1211356      0.053670626    0              1.1720034      1.2961107    
    116000   1.1872914      0.062669109    0              1.2469923      1.4239006    
    117000   1.0206029      0.051317819    0              1.0693692      1.1954998    
    118000   1.0293835      0.039892843    0              1.0667029      1.0849637    
    119000   1.0781983      0.046587329    0              1.1220902      1.253972     
    120000   0.95714446     0.071431604    0              1.0261832      1.3401225    
    121000   0.93341286     0.04951694     0              0.98059627     1.1963961    
    122000   0.88491554     0.05552058     0              0.93822383     1.1614839    
    123000   0.87457237     0.04345965     0              0.91584559     1.0989535    
    124000   0.86630856     0.031724607    0              0.89586739     0.89759825   
    125000   0.82720273     0.051493866    0              0.87662859     1.1751279    
    126000   0.8073322      0.045769035    0              0.85108291     1.0702159    
    127000   0.76656104     0.038011164    0              0.80265581     1.0429319    
    128000   0.69093554     0.040991328    0              0.73019953     0.85851905   
    129000   0.71978438     0.023363192    0              0.74134811     0.756668     
    130000   0.71961146     0.037602949    0              0.75541538     0.94145019   
    131000   0.7123213      0.014996486    0              0.72553699     0.6551014    
    132000   0.60708343     0.034135644    0              0.63970136     0.86981712   
    133000   0.55904739     0.027705648    0              0.58535542     0.78237083   
    134000   0.5433082      0.027674475    0              0.5696244      0.73143934   
    135000   0.52155012     0.025072322    0              0.54531856     0.73938431   
    136000   0.5465161      0.030709673    0              0.57585948     0.77295221   
    137000   0.47664221     0.014027007    0              0.48947761     0.52972593   
    138000   0.42876575     0.024769254    0              0.45246309     0.65843207   
    139000   0.41864494     0.010982307    0              0.42858063     0.44808892   
    140000   0.41175879     0.016292705    0              0.42702209     0.50374243   
    141000   0.37239629     0.014243154    0              0.38570845     0.49638449   
    142000   0.32429601     0.013535667    0              0.33702094     0.472745     
    143000   0.30747903     0.0094049052   0              0.31611524     0.38286235   
    144000   0.28347601     0.0079492558   0              0.29071658     0.32360976   
    145000   0.24606361     0.0084081207   0              0.25385657     0.33291819   
    146000   0.21340143     0.0072331716   0              0.2201011      0.2937331    
    147000   0.18300533     0.0048405065   0              0.18738833     0.23861917   
    148000   0.15778043     0.0054299433   0              0.16281592     0.25275444   
    149000   0.12001897     0.0035205909   0              0.12323951     0.16334763   
    150000   0.11345646     0.002311127    0              0.11548395     0.14200951   
Loop time of 2.22265 on 1 procs for 100000 steps with 400 atoms

Performance: 38872456.423 tau/day, 44991.269 timesteps/s, 17.997 Matom-step/s
99.4% CPU use with 1 MPI tasks x 1 OpenMP threads

MPI task timing breakdown:
Section |  min time  |  avg time  |  max time  |%varavg| %total
---------------------------------------------------------------
Pair    | 0.48492    | 0.48492    | 0.48492    |   0.0 | 21.82
Neigh   | 0.91407    | 0.91407    | 0.91407    |   0.0 | 41.13
Comm    | 0.1272     | 0.1272     | 0.1272     |   0.0 |  5.72
Output  | 0.003374   | 0.003374   | 0.003374   |   0.0 |  0.15
Modify  | 0.52025    | 0.52025    | 0.52025    |   0.0 | 23.41
Other   |            | 0.1728     |            |       |  7.78

Nlocal:            400 ave         400 max         400 min
Histogram: 1 0 0 0 0 0 0 0 0 0
Nghost:             82 ave          82 max          82 min
Histogram: 1 0 0 0 0 0 0 0 0 0
Neighs:            384 ave         384 max         384 min
Histogram: 1 0 0 0 0 0 0 0 0 0

Total # of neighbors = 384
Ave neighs/atom = 0.96
Neighbor list builds = 24753
Dangerous builds = 0
unfix 1
undump 1

Total wall time: 0:00:03
