LAMMPS (15 Sep 2022)
OMP_NUM_THREADS environment is not set. Defaulting to 1 thread. (src/comm.cpp:98)
  using 1 OpenMP thread(s) per MPI task
# 2D WCA system, random initial configuration

# Parameter settings
variable initial_temperature equal 3.0
variable final_temperature equal 0.1
variable dt equal 0.01
variable tau equal 100*${dt}
variable tau equal 100*0.01
variable thermo_time equal 1000       # Set to a smaller interval to ensure frequent DCD output
variable equil_steps equal 50000
variable run_steps equal 100000

units           lj
atom_style      atomic
dimension       2

# Define lattice and region
lattice         sq ${density}
lattice         sq 1.0
Lattice spacing in x,y,z = 1 1 1
region          box block 0 20 0 20 -0.5 0.5
create_box      1 box
Created orthogonal box = (0 0 -0.5) to (20 20 0.5)
  1 by 1 by 1 MPI processor grid
create_atoms    1 box
Created 400 atoms
  using lattice units in orthogonal box = (0 0 -0.5) to (20 20 0.5)
  create_atoms CPU = 0.000 seconds
mass 1 1.0  # Set mass for the original atom type

# Set initial velocity
velocity all create ${initial_temperature} 12345
velocity all create 3 12345

# Define interactions
pair_style      lj/cut 1.0
pair_coeff      1 1 10.0 0.89089871814 1.0  # Original Lennard-Jones parameters
pair_modify shift yes

# Simulation parameters
timestep        ${dt}
timestep        0.01
thermo          ${thermo_time}
thermo          1000

# High-temperature equilibration phase
fix 1 all nvt temp ${initial_temperature} ${initial_temperature} ${tau}
fix 1 all nvt temp 3 ${initial_temperature} ${tau}
fix 1 all nvt temp 3 3 ${tau}
fix 1 all nvt temp 3 3 1
run ${equil_steps}
run 50000
Generated 0 of 0 mixed pair_coeff terms from geometric mixing rule
Neighbor list info ...
  update: every = 1 steps, delay = 0 steps, check = yes
  max neighbors/atom: 2000, page size: 100000
  master list distance cutoff = 1.3
  ghost atom cutoff = 1.3
  binsize = 0.65, bins = 31 31 2
  1 neighbor lists, perpetual/occasional/extra = 1 0 0
  (1) pair lj/cut, perpetual
      attributes: half, newton on
      pair build: half/bin/atomonly/newton
      stencil: half/bin/2d
      bin: standard
Per MPI rank memory allocation (min/avg/max) = 3.055 | 3.055 | 3.055 Mbytes
   Step          Temp          E_pair         E_mol          TotEng         Press     
         0   3              0              0              2.9925         2.9925       
      1000   3.0917559      1.7585791      0              4.8426056      33.82522     
      2000   3.1922469      1.5548581      0              4.7391243      30.91703     
      3000   3.227933       1.5615149      0              4.7813781      30.972605    
      4000   3.1276773      1.6283016      0              4.7481597      32.143812    
      5000   3.2690791      1.5814995      0              4.8424059      32.112195    
      6000   2.9871168      1.7839499      0              4.7635989      34.145547    
      7000   2.9027129      1.7072718      0              4.6027279      32.71995     
      8000   2.8679964      1.5781849      0              4.4390112      31.041344    
      9000   2.9117112      1.5450558      0              4.4494878      30.61765     
     10000   2.9990935      1.6883299      0              4.6799257      31.893324    
     11000   3.117852       1.5061216      0              4.6161789      30.28254     
     12000   2.9467358      1.5313934      0              4.4707624      30.673734    
     13000   2.9017544      1.6018087      0              4.4963087      30.83471     
     14000   3.0791505      1.4974452      0              4.5688979      30.411909    
     15000   3.1440632      1.6307251      0              4.7669282      31.677617    
     16000   3.0357859      1.7770873      0              4.8052838      34.307581    
     17000   2.9873834      1.4719798      0              4.4518947      30.347235    
     18000   3.1968002      1.5049477      0              4.6937559      30.234691    
     19000   3.4570116      1.5462145      0              4.9945836      31.49734     
     20000   3.0414587      1.4569429      0              4.4907979      29.714208    
     21000   2.7228974      1.601655       0              4.3177451      31.325575    
     22000   3.2954302      1.6900005      0              4.9771921      32.952124    
     23000   2.7657379      1.6870186      0              4.4458422      32.722028    
     24000   2.9940296      1.5208985      0              4.507443       30.288646    
     25000   3.0378255      1.4003886      0              4.4306195      28.607801    
     26000   2.9598123      1.6421932      0              4.594606       32.467       
     27000   3.0481138      1.7924468      0              4.8329403      33.417008    
     28000   3.1798         1.6951952      0              4.8670457      33.533974    
     29000   2.8743322      1.6076383      0              4.4747847      31.010492    
     30000   2.75035        1.5239707      0              4.2674448      30.468292    
     31000   3.0995218      1.6424094      0              4.7341823      31.74302     
     32000   2.7902674      1.691041       0              4.4743328      32.467652    
     33000   3.0452947      1.6670844      0              4.7047658      33.398137    
     34000   2.8864566      1.4840646      0              4.3633051      30.030633    
     35000   3.2153985      1.3730607      0              4.5804207      29.841406    
     36000   3.10023        1.5848813      0              4.6773608      31.763244    
     37000   2.9600703      1.4837875      0              4.4364576      30.311411    
     38000   2.8302194      1.5525721      0              4.3757159      30.752095    
     39000   3.004195       1.8546052      0              4.8512897      35.439646    
     40000   3.1682156      1.6693868      0              4.8296819      32.218578    
     41000   3.173195       1.5328281      0              4.6980901      31.103452    
     42000   2.9101485      1.5334345      0              4.4363076      30.809054    
     43000   2.9349589      1.5842891      0              4.5119106      31.792004    
     44000   2.9678299      1.496436       0              4.4568463      30.180201    
     45000   3.3359513      1.5309614      0              4.8585728      31.394886    
     46000   2.8122406      1.5221169      0              4.3273268      30.444107    
     47000   2.9744041      1.6216341      0              4.5886023      31.303263    
     48000   3.0900296      1.5534078      0              4.6357124      31.470961    
     49000   2.918706       1.5751911      0              4.4866003      31.35964     
     50000   3.0937238      1.6051924      0              4.6911819      31.323857    
Loop time of 2.07714 on 1 procs for 50000 steps with 400 atoms

Performance: 20797787.982 tau/day, 24071.514 timesteps/s, 9.629 Matom-step/s
99.7% CPU use with 1 MPI tasks x 1 OpenMP threads

MPI task timing breakdown:
Section |  min time  |  avg time  |  max time  |%varavg| %total
---------------------------------------------------------------
Pair    | 0.72271    | 0.72271    | 0.72271    |   0.0 | 34.79
Neigh   | 0.90176    | 0.90176    | 0.90176    |   0.0 | 43.41
Comm    | 0.093303   | 0.093303   | 0.093303   |   0.0 |  4.49
Output  | 0.00042556 | 0.00042556 | 0.00042556 |   0.0 |  0.02
Modify  | 0.26024    | 0.26024    | 0.26024    |   0.0 | 12.53
Other   |            | 0.09871    |            |       |  4.75

Nlocal:            400 ave         400 max         400 min
Histogram: 1 0 0 0 0 0 0 0 0 0
Nghost:            106 ave         106 max         106 min
Histogram: 1 0 0 0 0 0 0 0 0 0
Neighs:           1062 ave        1062 max        1062 min
Histogram: 1 0 0 0 0 0 0 0 0 0

Total # of neighbors = 1062
Ave neighs/atom = 2.655
Neighbor list builds = 16881
Dangerous builds = 0
unfix 1

# Dump settings for trajectory output
# Output the trajectory information for cooling phase in DCD format, unique file for each density
dump            1 all dcd ${thermo_time} output_density_${density}.dcd
dump            1 all dcd 1000 output_density_${density}.dcd
dump            1 all dcd 1000 output_density_1.0.dcd
dump_modify     1 unwrap yes

# Cooling phase, gradually lowering temperature to final_temperature
fix 1 all nvt temp ${initial_temperature} ${final_temperature} ${tau}
fix 1 all nvt temp 3 ${final_temperature} ${tau}
fix 1 all nvt temp 3 0.1 ${tau}
fix 1 all nvt temp 3 0.1 1
run ${run_steps}
run 100000
Generated 0 of 0 mixed pair_coeff terms from geometric mixing rule
Per MPI rank memory allocation (min/avg/max) = 3.083 | 3.083 | 3.083 Mbytes
   Step          Temp          E_pair         E_mol          TotEng         Press     
     50000   3.0937238      1.6051924      0              4.6911819      31.323857    
     51000   3.0326857      1.7020929      0              4.7271968      32.978308    
     52000   3.0324429      1.4156233      0              4.4404852      29.078112    
     53000   2.9545476      1.2994985      0              4.2466597      27.646057    
     54000   3.0611281      1.6947794      0              4.7482547      32.691933    
     55000   2.9520083      1.4980709      0              4.4426992      30.166155    
     56000   2.8405345      1.6497163      0              4.4831495      31.450812    
     57000   2.8609849      1.552966       0              4.4067984      31.123356    
     58000   2.8575658      1.2531189      0              4.1035408      27.375483    
     59000   2.6856562      1.2190402      0              3.8979823      26.532712    
     60000   2.6921211      1.3979736      0              4.0833644      28.710894    
     61000   2.5053983      1.5227441      0              4.0218789      30.414767    
     62000   2.7445724      1.6081533      0              4.3458643      31.48376     
     63000   2.5453224      1.3614577      0              3.9004168      27.590522    
     64000   2.651451       1.1598836      0              3.804706       25.503127    
     65000   2.591136       1.3956046      0              3.9802628      28.84537     
     66000   2.5551246      1.3128664      0              3.8616032      28.221239    
     67000   2.6145969      1.3175104      0              3.9255708      27.301698    
     68000   2.6806468      1.2205637      0              3.8945088      25.730477    
     69000   2.4125436      1.2450381      0              3.6515503      25.177818    
     70000   2.319648       1.2111925      0              3.5250414      26.450516    
     71000   2.3741145      1.1810581      0              3.5492373      26.024142    
     72000   2.667728       1.2476361      0              3.9086948      26.514562    
     73000   2.4035077      1.1941338      0              3.5916327      26.127659    
     74000   2.470574       1.1169619      0              3.5813595      24.195472    
     75000   2.2500276      0.99128308     0              3.2356856      22.019765    
     76000   2.2034002      1.0429909      0              3.2408826      22.640543    
     77000   2.4867785      0.95983387     0              3.4403955      22.761106    
     78000   2.2990159      1.1107589      0              3.4040273      24.547876    
     79000   2.3400463      1.152188       0              3.4863842      24.994546    
     80000   2.1381373      1.1016387      0              3.2344306      23.92062     
     81000   2.0435037      1.094761       0              3.1331559      23.979419    
     82000   2.0124642      0.87486022     0              2.8822933      20.813601    
     83000   2.1049721      0.86514506     0              2.9648547      20.444203    
     84000   1.7776138      1.0604904      0              2.8336602      23.693613    
     85000   2.0947213      0.84312648     0              2.9326109      20.199908    
     86000   1.9167377      0.99338001     0              2.9053259      22.420806    
     87000   2.0753255      0.84350165     0              2.9136388      20.294921    
     88000   1.9348667      0.95418942     0              2.884219       21.446832    
     89000   1.8617758      0.79386791     0              2.6509893      19.476752    
     90000   1.6119405      0.9069489      0              2.5148595      20.380798    
     91000   1.807491       0.6992517      0              2.502224       18.083832    
     92000   1.7799268      0.92111099     0              2.696588       21.290805    
     93000   1.8021912      0.79611816     0              2.5938039      18.864788    
     94000   1.8329083      0.7261423      0              2.5544683      18.170372    
     95000   1.6788211      0.8008297      0              2.4754537      18.943426    
     96000   1.6324265      0.7143705      0              2.3427159      17.85876     
     97000   1.6155802      0.6306358      0              2.2421771      16.315623    
     98000   1.4803096      0.6902727      0              2.1668815      17.18587     
     99000   1.5105216      0.54341104     0              2.0501564      14.486192    
    100000   1.6263667      0.61799686     0              2.2402976      16.062004    
    101000   1.5082035      0.71021895     0              2.2146519      17.45858     
    102000   1.4685412      0.60073766     0              2.0656075      15.580796    
    103000   1.447846       0.50997856     0              1.954205       14.146413    
    104000   1.5343674      0.51705285     0              2.0475844      14.121259    
    105000   1.4735923      0.56022797     0              2.0301362      15.079484    
    106000   1.3304475      0.53688054     0              1.8640019      14.512303    
    107000   1.3801839      0.46916641     0              1.8458999      13.470876    
    108000   1.3591125      0.51027712     0              1.8659918      13.896478    
    109000   1.2020418      0.40729705     0              1.6063337      12.097944    
    110000   1.2676389      0.50908198     0              1.7735518      13.954671    
    111000   1.1506808      0.4487244      0              1.5965285      12.865507    
    112000   1.1274662      0.4860835      0              1.610731       13.398077    
    113000   1.0677635      0.45851957     0              1.5236137      12.388469    
    114000   1.0862104      0.50105987     0              1.5845548      13.64371     
    115000   1.192506       0.47028104     0              1.6598058      12.930839    
    116000   1.1537215      0.42538571     0              1.5762229      12.41591     
    117000   1.0550637      0.4284384      0              1.4808645      12.370606    
    118000   0.99537198     0.37989601     0              1.3727796      11.325296    
    119000   1.0321474      0.32082787     0              1.3503949      10.216716    
    120000   0.93841789     0.36202581     0              1.2980977      10.559436    
    121000   0.95912032     0.335358       0              1.2920805      10.186761    
    122000   0.94862188     0.33077957     0              1.2770299      10.138165    
    123000   0.81365013     0.33933981     0              1.1509558      10.421987    
    124000   0.84064449     0.27150657     0              1.1100495      8.9535341    
    125000   0.80360209     0.25902545     0              1.0606185      8.912274     
    126000   0.82050792     0.32255494     0              1.1410116      10.13706     
    127000   0.7944699      0.25356694     0              1.0460507      8.3721119    
    128000   0.72569278     0.26369262     0              0.98757117     8.400079     
    129000   0.74859342     0.23510207     0              0.98182401     8.1576606    
    130000   0.74702066     0.23907785     0              0.98423096     8.2756686    
    131000   0.6892516      0.21848718     0              0.90601564     7.7584431    
    132000   0.58914054     0.15761031     0              0.745278       6.3815173    
    133000   0.61978627     0.13961959     0              0.7578564      5.7251644    
    134000   0.52826775     0.17261641     0              0.69956349     6.736674     
    135000   0.54431963     0.12713368     0              0.67009251     5.2979859    
    136000   0.51238116     0.13948711     0              0.65058732     5.5411765    
    137000   0.46893313     0.13564083     0              0.60340162     5.4176838    
    138000   0.43734127     0.10508834     0              0.54133625     4.601929     
    139000   0.3996136      0.1179922      0              0.51660677     4.8846142    
    140000   0.39146565     0.088520524    0              0.47900751     4.2474072    
    141000   0.38051702     0.094049148    0              0.47361487     4.3807684    
    142000   0.32982991     0.10030703     0              0.42931236     4.3020208    
    143000   0.34997461     0.072077311    0              0.42117698     3.7574163    
    144000   0.2683586      0.070404485    0              0.33809219     3.5327723    
    145000   0.25340517     0.048511323    0              0.30128298     2.8863504    
    146000   0.20451536     0.054749152    0              0.25875322     2.9386762    
    147000   0.18581851     0.038693943    0              0.22404791     2.2995811    
    148000   0.15951141     0.035336703    0              0.19444934     2.2076426    
    149000   0.13173509     0.029951978    0              0.16135773     1.9817644    
    150000   0.095703478    0.016673634    0              0.11213785     1.2638873    
Loop time of 3.24906 on 1 procs for 100000 steps with 400 atoms

Performance: 26592280.344 tau/day, 30778.102 timesteps/s, 12.311 Matom-step/s
99.6% CPU use with 1 MPI tasks x 1 OpenMP threads

MPI task timing breakdown:
Section |  min time  |  avg time  |  max time  |%varavg| %total
---------------------------------------------------------------
Pair    | 1.2413     | 1.2413     | 1.2413     |   0.0 | 38.21
Neigh   | 1.1691     | 1.1691     | 1.1691     |   0.0 | 35.98
Comm    | 0.14437    | 0.14437    | 0.14437    |   0.0 |  4.44
Output  | 0.0035242  | 0.0035242  | 0.0035242  |   0.0 |  0.11
Modify  | 0.52074    | 0.52074    | 0.52074    |   0.0 | 16.03
Other   |            | 0.1699     |            |       |  5.23

Nlocal:            400 ave         400 max         400 min
Histogram: 1 0 0 0 0 0 0 0 0 0
Nghost:            116 ave         116 max         116 min
Histogram: 1 0 0 0 0 0 0 0 0 0
Neighs:           1175 ave        1175 max        1175 min
Histogram: 1 0 0 0 0 0 0 0 0 0

Total # of neighbors = 1175
Ave neighs/atom = 2.9375
Neighbor list builds = 23976
Dangerous builds = 0
unfix 1
undump 1

Total wall time: 0:00:05
