LAMMPS (15 Sep 2022)
OMP_NUM_THREADS environment is not set. Defaulting to 1 thread. (src/comm.cpp:98)
  using 1 OpenMP thread(s) per MPI task
# 2D WCA system, random initial configuration

# Parameter settings
variable initial_temperature equal 3.0
variable final_temperature equal 0.1
variable dt equal 0.01
variable tau equal 100*${dt}
variable tau equal 100*0.01
variable thermo_time equal 1000       # Set to a smaller interval to ensure frequent DCD output
variable equil_steps equal 50000
variable run_steps equal 100000

units           lj
atom_style      atomic
dimension       2

# Define lattice and region
lattice         sq ${density}
lattice         sq 0.7
Lattice spacing in x,y,z = 1.1952286 1.1952286 1.1952286
region          box block 0 20 0 20 -0.5 0.5
create_box      1 box
Created orthogonal box = (0 0 -0.5976143) to (23.904572 23.904572 0.5976143)
  1 by 1 by 1 MPI processor grid
create_atoms    1 box
Created 400 atoms
  using lattice units in orthogonal box = (0 0 -0.5976143) to (23.904572 23.904572 0.5976143)
  create_atoms CPU = 0.000 seconds
mass 1 1.0  # Set mass for the original atom type

# Set initial velocity
velocity all create ${initial_temperature} 12345
velocity all create 3 12345

# Define interactions
pair_style      lj/cut 1.0
pair_coeff      1 1 10.0 0.89089871814 1.0  # Original Lennard-Jones parameters
pair_modify shift yes

# Simulation parameters
timestep        ${dt}
timestep        0.01
thermo          ${thermo_time}
thermo          1000

# High-temperature equilibration phase
fix 1 all nvt temp ${initial_temperature} ${initial_temperature} ${tau}
fix 1 all nvt temp 3 ${initial_temperature} ${tau}
fix 1 all nvt temp 3 3 ${tau}
fix 1 all nvt temp 3 3 1
run ${equil_steps}
run 50000
Generated 0 of 0 mixed pair_coeff terms from geometric mixing rule
Neighbor list info ...
  update: every = 1 steps, delay = 0 steps, check = yes
  max neighbors/atom: 2000, page size: 100000
  master list distance cutoff = 1.3
  ghost atom cutoff = 1.3
  binsize = 0.65, bins = 37 37 2
  1 neighbor lists, perpetual/occasional/extra = 1 0 0
  (1) pair lj/cut, perpetual
      attributes: half, newton on
      pair build: half/bin/atomonly/newton
      stencil: half/bin/2d
      bin: standard
Per MPI rank memory allocation (min/avg/max) = 3.057 | 3.057 | 3.057 Mbytes
   Step          Temp          E_pair         E_mol          TotEng         Press     
         0   3              0              0              2.9925         2.09475      
      1000   2.9406975      0.42880767     0              3.3621535      7.6835108    
      2000   2.9198056      0.40435252     0              3.3168586      7.4259081    
      3000   3.0628978      0.42920706     0              3.4844477      7.4930256    
      4000   2.8548929      0.46019902     0              3.3079547      8.3124059    
      5000   2.9137107      0.46222687     0              3.3686533      8.4066986    
      6000   2.6837768      0.54695593     0              3.2240233      8.663481     
      7000   3.0399697      0.4886099      0              3.5209796      8.716257     
      8000   3.1320864      0.37764856     0              3.5019048      7.6219097    
      9000   2.9974285      0.56087608     0              3.550811       9.0364482    
     10000   3.070852       0.48558037     0              3.5487552      8.257645     
     11000   3.0311847      0.47153248     0              3.4951393      8.332188     
     12000   2.8897367      0.35616926     0              3.2386816      7.252245     
     13000   2.9659615      0.50167838     0              3.460225       8.7328984    
     14000   2.684995       0.37176824     0              3.0500507      7.1049919    
     15000   2.879563       0.45156186     0              3.323926       8.3556469    
     16000   3.0242056      0.49205247     0              3.5086975      8.4504469    
     17000   3.1077545      0.46325873     0              3.5632439      8.0914776    
     18000   3.02193        0.47555836     0              3.4899335      8.4557308    
     19000   2.9737727      0.41788847     0              3.3842267      7.6888733    
     20000   3.0340844      0.41753573     0              3.4440349      7.895688     
     21000   3.0403646      0.37104646     0              3.4038101      7.5201321    
     22000   3.1154318      0.57332861     0              3.6809718      9.342711     
     23000   3.0952068      0.45985021     0              3.547319       8.2696061    
     24000   3.0832396      0.37688873     0              3.4524203      7.1761047    
     25000   2.755261       0.41180452     0              3.1601773      7.6387575    
     26000   2.9336439      0.49106249     0              3.4173722      8.5478286    
     27000   2.9960592      0.40930817     0              3.3978773      7.6583497    
     28000   2.8671914      0.47621509     0              3.3362385      8.3641333    
     29000   3.2159651      0.40909712     0              3.6170223      7.5218183    
     30000   2.8977591      0.44425773     0              3.3347725      7.8951869    
     31000   3.0256911      0.37623973     0              3.3943666      7.3441988    
     32000   2.9545471      0.46616408     0              3.4133248      8.287093     
     33000   3.2394873      0.47288482     0              3.7042734      8.2309749    
     34000   3.0608323      0.52357686     0              3.5767571      9.1171916    
     35000   3.0843729      0.41167868     0              3.4883407      7.7926522    
     36000   3.0693865      0.43264429     0              3.4943574      7.7878017    
     37000   2.7850359      0.34132279     0              3.1193961      6.6269758    
     38000   2.9232398      0.38838647     0              3.3043182      7.463733     
     39000   2.9614055      0.36588241     0              3.3198844      7.4195068    
     40000   2.8457509      0.55150638     0              3.3901429      9.0203578    
     41000   2.9322024      0.51469333     0              3.4395653      8.7613196    
     42000   3.1453245      0.32632642     0              3.4637876      7.0754589    
     43000   3.3910977      0.49848574     0              3.8811057      9.0446736    
     44000   3.0451075      0.60438065     0              3.6418754      9.2857948    
     45000   3.0138192      0.51431882     0              3.5206035      8.8739802    
     46000   3.1940597      0.39451513     0              3.5805897      7.6934232    
     47000   2.9682112      0.43136498     0              3.3921556      8.0684679    
     48000   2.6571197      0.42454072     0              3.0750176      7.4439232    
     49000   2.8709973      0.520349       0              3.3841688      8.8045645    
     50000   2.9179092      0.44152138     0              3.3521358      8.0871891    
Loop time of 1.64185 on 1 procs for 50000 steps with 400 atoms

Performance: 26311738.418 tau/day, 30453.401 timesteps/s, 12.181 Matom-step/s
99.7% CPU use with 1 MPI tasks x 1 OpenMP threads

MPI task timing breakdown:
Section |  min time  |  avg time  |  max time  |%varavg| %total
---------------------------------------------------------------
Pair    | 0.42143    | 0.42143    | 0.42143    |   0.0 | 25.67
Neigh   | 0.77703    | 0.77703    | 0.77703    |   0.0 | 47.33
Comm    | 0.086394   | 0.086394   | 0.086394   |   0.0 |  5.26
Output  | 0.00043223 | 0.00043223 | 0.00043223 |   0.0 |  0.03
Modify  | 0.25852    | 0.25852    | 0.25852    |   0.0 | 15.75
Other   |            | 0.09805    |            |       |  5.97

Nlocal:            400 ave         400 max         400 min
Histogram: 1 0 0 0 0 0 0 0 0 0
Nghost:             92 ave          92 max          92 min
Histogram: 1 0 0 0 0 0 0 0 0 0
Neighs:            638 ave         638 max         638 min
Histogram: 1 0 0 0 0 0 0 0 0 0

Total # of neighbors = 638
Ave neighs/atom = 1.595
Neighbor list builds = 16909
Dangerous builds = 0
unfix 1

# Dump settings for trajectory output
# Output the trajectory information for cooling phase in DCD format, unique file for each density
dump            1 all dcd ${thermo_time} output_density_${density}.dcd
dump            1 all dcd 1000 output_density_${density}.dcd
dump            1 all dcd 1000 output_density_0.7.dcd
dump_modify     1 unwrap yes

# Cooling phase, gradually lowering temperature to final_temperature
fix 1 all nvt temp ${initial_temperature} ${final_temperature} ${tau}
fix 1 all nvt temp 3 ${final_temperature} ${tau}
fix 1 all nvt temp 3 0.1 ${tau}
fix 1 all nvt temp 3 0.1 1
run ${run_steps}
run 100000
Generated 0 of 0 mixed pair_coeff terms from geometric mixing rule
Per MPI rank memory allocation (min/avg/max) = 3.084 | 3.084 | 3.084 Mbytes
   Step          Temp          E_pair         E_mol          TotEng         Press     
     50000   2.9179092      0.44152138     0              3.3521358      8.0871891    
     51000   2.8227418      0.4553922      0              3.2710772      8.2703612    
     52000   3.1725671      0.32253792     0              3.4871736      6.7800589    
     53000   3.1244794      0.3935911      0              3.5102593      7.7893483    
     54000   2.7571425      0.51316125     0              3.2634109      8.4942111    
     55000   2.859301       0.41931838     0              3.2714712      8.1335542    
     56000   2.8328372      0.40797171     0              3.2337268      7.6272904    
     57000   2.8645799      0.41658822     0              3.2740067      7.577006     
     58000   2.8209612      0.34766837     0              3.1615771      6.9557363    
     59000   2.7293463      0.4081797      0              3.1307026      7.3681108    
     60000   2.6264576      0.4533438      0              3.0732352      7.8739388    
     61000   2.6083076      0.40231622     0              3.004103       7.4757947    
     62000   2.5584355      0.33973101     0              2.8917704      6.6570378    
     63000   2.6392021      0.29791222     0              2.9305163      6.3283862    
     64000   2.641378       0.40192234     0              3.0366969      7.3612297    
     65000   3.1075729      0.35823737     0              3.4580413      6.944308     
     66000   2.6225881      0.39113789     0              3.0071695      7.1972745    
     67000   2.7134515      0.38980328     0              3.0964712      7.4070173    
     68000   2.6221185      0.31046687     0              2.92603        6.4262648    
     69000   2.5335315      0.37474314     0              2.9019408      6.9174412    
     70000   2.497263       0.41946957     0              2.9104894      7.4718668    
     71000   2.5592317      0.41618246     0              2.9690161      7.5543061    
     72000   2.4344939      0.29787992     0              2.7262876      6.0759801    
     73000   2.2390694      0.25394911     0              2.4874209      5.4316633    
     74000   2.376096       0.2996319      0              2.6697877      6.2260643    
     75000   2.2836474      0.35189215     0              2.6298305      6.3237014    
     76000   2.4855379      0.31788525     0              2.7972093      6.2247526    
     77000   2.3367419      0.32655325     0              2.6574533      6.0607037    
     78000   2.2503016      0.25302423     0              2.4977001      5.4120141    
     79000   2.1035771      0.28831232     0              2.3866305      5.8392668    
     80000   2.006544       0.32755551     0              2.3290831      5.8354643    
     81000   2.091445       0.30036139     0              2.3865778      6.0562397    
     82000   2.1517766      0.28718357     0              2.4335807      5.7585591    
     83000   2.1528918      0.31221526     0              2.4597248      6.1108432    
     84000   2.0480479      0.28750693     0              2.3304347      5.5557898    
     85000   2.1654391      0.33172073     0              2.4917462      6.2012286    
     86000   1.982549       0.29727073     0              2.2748634      5.9072491    
     87000   1.8582536      0.25009667     0              2.1037046      5.2831186    
     88000   1.7524747      0.31851175     0              2.0666053      5.8089598    
     89000   1.6692463      0.23476081     0              1.899834       5.0482303    
     90000   1.7961444      0.24588505     0              2.0375391      4.7933297    
     91000   1.7174367      0.28086995     0              1.994013       5.4639868    
     92000   1.7322929      0.22236207     0              1.9503242      4.8302643    
     93000   1.6954674      0.20350069     0              1.8947294      4.624164     
     94000   1.733323       0.30766587     0              2.0366555      5.8206042    
     95000   1.7520351      0.19098506     0              1.9386401      4.6193425    
     96000   1.7668056      0.24925455     0              2.0116431      5.2687156    
     97000   1.566107       0.23513063     0              1.7973224      4.6780625    
     98000   1.5724868      0.1907165      0              1.759272       4.2861469    
     99000   1.5314675      0.1352408      0              1.6628796      3.70185      
    100000   1.5458227      0.16034105     0              1.7022992      3.8977345    
    101000   1.4955645      0.22392016     0              1.7157457      4.4190108    
    102000   1.520753       0.1910293      0              1.7079805      4.0161247    
    103000   1.5400577      0.21295153     0              1.749159       4.5932821    
    104000   1.4144288      0.21025805     0              1.6211508      4.5262804    
    105000   1.4026533      0.18827768     0              1.5874243      4.2201685    
    106000   1.2236434      0.18223177     0              1.4028161      4.218332     
    107000   1.314023       0.11861331     0              1.4293513      3.3029687    
    108000   1.2485053      0.17187398     0              1.417258       3.9250254    
    109000   1.2454316      0.15407736     0              1.3963953      3.7064519    
    110000   1.318035       0.12963085     0              1.4443707      3.4659487    
    111000   1.270431       0.16396978     0              1.4312247      3.8770553    
    112000   1.2161598      0.18393002     0              1.3970494      4.144387     
    113000   1.2324838      0.096865029    0              1.3262676      2.9606154    
    114000   1.1628294      0.13078365     0              1.2907059      3.2180166    
    115000   1.2164983      0.11980327     0              1.3332604      3.1647718    
    116000   1.0387634      0.13960692     0              1.1757734      3.3926448    
    117000   0.94316766     0.11028239     0              1.0510921      2.8972145    
    118000   0.99082988     0.12504956     0              1.1134024      3.105849     
    119000   0.94754219     0.10240781     0              1.0475811      2.6649724    
    120000   0.98180036     0.087162482    0              1.0665083      2.5823291    
    121000   0.94004717     0.11611439     0              1.0538114      3.094528     
    122000   0.89893474     0.1636069      0              1.0602943      3.3604625    
    123000   0.88469135     0.13844356     0              1.0209232      3.0259328    
    124000   0.84457474     0.094428281    0              0.93689158     2.500122     
    125000   0.8368638      0.077949571    0              0.91272121     2.2907115    
    126000   0.81109959     0.10973412     0              0.91880597     2.7999842    
    127000   0.81884939     0.092108966    0              0.90891123     2.4869149    
    128000   0.77660949     0.067497199    0              0.84216517     1.9228076    
    129000   0.72034464     0.066718379    0              0.78526215     2.138411     
    130000   0.68141836     0.068581591    0              0.7482964      2.0948725    
    131000   0.61379017     0.093479428    0              0.70573512     2.4765192    
    132000   0.62355738     0.054005646    0              0.67600413     1.8508766    
    133000   0.57939898     0.075065523    0              0.65301601     1.9959389    
    134000   0.59427733     0.059129455    0              0.65192109     1.8703577    
    135000   0.585033       0.042104577    0              0.625675       1.5181544    
    136000   0.53272112     0.055906223    0              0.58729554     1.7363008    
    137000   0.50620896     0.03796096     0              0.5429044      1.3525993    
    138000   0.4730859      0.02607888     0              0.49798207     1.1826189    
    139000   0.41573541     0.028192503    0              0.44288857     1.1640366    
    140000   0.3866852      0.026813583    0              0.41253207     1.0664954    
    141000   0.36443189     0.031823248    0              0.39534406     1.1889704    
    142000   0.3622865      0.03636997     0              0.39775076     1.2899933    
    143000   0.30069418     0.022019777    0              0.32196222     0.97812757   
    144000   0.2771086      0.011948941    0              0.28836477     0.63274948   
    145000   0.24760382     0.013313599    0              0.2602984      0.68428104   
    146000   0.19304918     0.017847993    0              0.21041455     0.75446156   
    147000   0.18829343     0.01693461     0              0.2047573      0.75522503   
    148000   0.17045883     0.012233407    0              0.18226609     0.59746558   
    149000   0.13950657     0.0071658927   0              0.1463237      0.44073795   
    150000   0.099156425    0.0046994063   0              0.10360794     0.33076993   
Loop time of 2.70306 on 1 procs for 100000 steps with 400 atoms

Performance: 31963749.190 tau/day, 36995.080 timesteps/s, 14.798 Matom-step/s
99.6% CPU use with 1 MPI tasks x 1 OpenMP threads

MPI task timing breakdown:
Section |  min time  |  avg time  |  max time  |%varavg| %total
---------------------------------------------------------------
Pair    | 0.74668    | 0.74668    | 0.74668    |   0.0 | 27.62
Neigh   | 1.1302     | 1.1302     | 1.1302     |   0.0 | 41.81
Comm    | 0.13873    | 0.13873    | 0.13873    |   0.0 |  5.13
Output  | 0.0034375  | 0.0034375  | 0.0034375  |   0.0 |  0.13
Modify  | 0.51346    | 0.51346    | 0.51346    |   0.0 | 19.00
Other   |            | 0.1706     |            |       |  6.31

Nlocal:            400 ave         400 max         400 min
Histogram: 1 0 0 0 0 0 0 0 0 0
Nghost:             90 ave          90 max          90 min
Histogram: 1 0 0 0 0 0 0 0 0 0
Neighs:            660 ave         660 max         660 min
Histogram: 1 0 0 0 0 0 0 0 0 0

Total # of neighbors = 660
Ave neighs/atom = 1.65
Neighbor list builds = 24605
Dangerous builds = 0
unfix 1
undump 1

Total wall time: 0:00:04
