
Host: cs003.hpc.nyu.edu

Timers On : Fri Nov  8 16:03:18 2024
Timers Off: Fri Nov  8 16:03:18 2024

Wall Time:        0.36 seconds

                                                       Time (seconds)
Module                                       User      System        Wall        Calls

--------------------------------------------------------------------------------------

**************************************************************************************
