#     Step Nr.          Time[fs]        Kin.[a.u.]          Temp[K]            Pot.[a.u.]        Cons Qty[a.u.]        UsedTime[s]
         0            0.000000         0.273612846       300.000000000     -1102.629448594     -1102.355835748         0.000000000
         1            0.500000         0.279633819       306.601634918     -1102.634728487     -1102.356032711        32.143023748
         2            1.000000         0.278176228       305.003473713     -1102.643688340     -1102.356285322         5.235142119
         3            1.500000         0.280393422       307.434492997     -1102.653080703     -1102.356547289         5.441081814
         4            2.000000         0.282889483       310.171274159     -1102.655862600     -1102.356593452         5.308929395
         5            2.500000         0.294372846       322.762089256     -1102.653391721     -1102.356505399         5.387087103
         6            3.000000         0.293202260       321.478612092     -1102.644027094     -1102.356292113         5.264713991
         7            3.500000         0.275739443       302.331685376     -1102.631056927     -1102.356023130         5.371790454
         8            4.000000         0.264614578       290.133941924     -1102.619771042     -1102.355795899         5.428545725
         9            4.500000         0.268857948       294.786540953     -1102.613634927     -1102.355689469         5.318573166
        10            5.000000         0.262607548       287.933354685     -1102.612082629     -1102.355666725         6.859155450
        11            5.500000         0.288697192       316.539076467     -1102.616775792     -1102.355783250         5.382066917
        12            6.000000         0.295096611       323.555654134     -1102.622813260     -1102.355937950         5.382205002
        13            6.500000         0.289353988       317.259214176     -1102.629250655     -1102.356081233         5.317915931
        14            7.000000         0.287416783       315.135185470     -1102.637410482     -1102.356246228         5.291664779
        15            7.500000         0.310165102       340.077346930     -1102.641761748     -1102.356328622         5.396089192
        16            8.000000         0.323802738       355.030192820     -1102.645349103     -1102.356402515         5.346846517
        17            8.500000         0.301956868       331.077513241     -1102.645418760     -1102.356418531         5.394840557
        18            9.000000         0.286912673       314.582459298     -1102.641734958     -1102.356310656         5.214528799
        19            9.500000         0.276541909       303.211541919     -1102.635703652     -1102.356123440         5.336910207
        20           10.000000         0.260847091       286.003119537     -1102.628436222     -1102.355915126         7.225953329
        21           10.500000         0.250829117       275.019014031     -1102.621372875     -1102.355688604         5.363365650
        22           11.000000         0.252589683       276.949368713     -1102.619839890     -1102.355630752         5.312080476
        23           11.500000         0.254712048       279.276413739     -1102.626571548     -1102.355823251         5.449034221
        24           12.000000         0.265639894       291.258138723     -1102.636526005     -1102.356020668         5.366477672
        25           12.500000         0.277078124       303.799469221     -1102.645826859     -1102.356189502         5.302588064
        26           13.000000         0.276140999       302.771967344     -1102.652591961     -1102.356272544         5.294021070
        27           13.500000         0.297663960       326.370597938     -1102.655384720     -1102.356219451         5.451294735
        28           14.000000         0.292250721       320.435307919     -1102.655692042     -1102.356103565         5.314364869
        29           14.500000         0.281400579       308.538780419     -1102.654888372     -1102.356028025         5.384923916
        30           15.000000         0.286612223       314.253034545     -1102.651854052     -1102.355941964         7.068999898
        31           15.500000         0.301188497       330.235039788     -1102.649497290     -1102.355883179         5.384763904
        32           16.000000         0.299504682       328.388838219     -1102.646731419     -1102.355818637         5.357991174
        33           16.500000         0.291057519       319.127033606     -1102.645976761     -1102.355750903         5.372366410
        34           17.000000         0.291210761       319.295053980     -1102.647476574     -1102.355705892         5.238213457
        35           17.500000         0.303751951       333.045713179     -1102.652982102     -1102.355823547         5.370753512
        36           18.000000         0.299220135       328.076849934     -1102.659956618     -1102.356048442         5.356081709
        37           18.500000         0.316528355       347.054270077     -1102.662878593     -1102.356180240         5.313780777
        38           19.000000         0.312059887       342.154864507     -1102.660507582     -1102.356202008         5.305860553
        39           19.500000         0.316171730       346.663252966     -1102.656115673     -1102.356078685         5.353540488
        40           20.000000         0.299355453       328.225217601     -1102.648878514     -1102.355890093         7.076957166
        41           20.500000         0.290515955       318.533241421     -1102.643145712     -1102.355773629         5.339992054
        42           21.000000         0.292335239       320.527976606     -1102.641775355     -1102.355839829         5.279889546
        43           21.500000         0.292864229       321.107981598     -1102.641696945     -1102.355896983         5.394071199
        44           22.000000         0.298441806       327.223458584     -1102.641498294     -1102.355927731         5.303220429
        45           22.500000         0.281584966       308.740950017     -1102.641249503     -1102.355973007         5.385337245
        46           23.000000         0.268647469       294.555763712     -1102.638733432     -1102.355935123         5.203326598
        47           23.500000         0.272321768       298.584410954     -1102.640558486     -1102.355980954         5.355267871
        48           24.000000         0.280027628       307.033422555     -1102.643886369     -1102.356039317         5.389569588
        49           24.500000         0.277870189       304.667920802     -1102.647866085     -1102.356127491         5.359132469
        50           25.000000         0.275189966       301.729217683     -1102.650936078     -1102.356256634         7.486352228
        51           25.500000         0.260569407       285.698655714     -1102.652308206     -1102.356346909         5.375646364
        52           26.000000         0.260067903       285.148786102     -1102.653011744     -1102.356342919         5.355892181
        53           26.500000         0.259523824       284.552236394     -1102.650868573     -1102.356222289         5.310498483
        54           27.000000         0.258216561       283.118901723     -1102.649712215     -1102.356088336         5.300154738
        55           27.500000         0.252322957       276.656919567     -1102.649573181     -1102.356007795         5.415781870
        56           28.000000         0.250219224       274.350303125     -1102.654470790     -1102.356129352         5.335370623
        57           28.500000         0.266792766       292.522193684     -1102.663219866     -1102.356395973         5.339939844
        58           29.000000         0.270022295       296.063177827     -1102.667565255     -1102.356510507         5.189451482
        59           29.500000         0.272968396       299.293400089     -1102.671480487     -1102.356565130         5.405454040
        60           30.000000         0.276980269       303.692176295     -1102.671991386     -1102.356537916         7.310932230
        61           30.500000         0.274619786       301.104049797     -1102.671363551     -1102.356500826         5.353144694
        62           31.000000         0.274218381       300.663932520     -1102.668392698     -1102.356435724         5.239562452
        63           31.500000         0.278232801       305.065502825     -1102.666314114     -1102.356430160         5.396560188
        64           32.000000         0.291317859       319.412480536     -1102.662998567     -1102.356351195         5.335912373
        65           32.500000         0.287118339       314.807959571     -1102.660598887     -1102.356288021         5.351277497
        66           33.000000         0.277406894       304.159944898     -1102.656416776     -1102.356161111         5.255380690
        67           33.500000         0.269359451       295.336408690     -1102.654625485     -1102.356095346         5.367634431
        68           34.000000         0.284279324       311.695150794     -1102.655748156     -1102.356119225         5.381483275
        69           34.500000         0.307167002       336.790110299     -1102.663050205     -1102.356274076         5.361268774
        70           35.000000         0.309877738       339.762269571     -1102.668570830     -1102.356387568         7.489120502
        71           35.500000         0.306403989       335.953513257     -1102.670562621     -1102.356379401         5.443468872
        72           36.000000         0.294675470       323.093898242     -1102.671396058     -1102.356341668         5.289257601
        73           36.500000         0.304358645       333.710916779     -1102.670834857     -1102.356309045         5.396110933
        74           37.000000         0.291807604       319.949456254     -1102.670878157     -1102.356269137         5.179258838
        75           37.500000         0.308475946       338.225288704     -1102.673067447     -1102.356292656         5.387492817
        76           38.000000         0.283414248       310.746646682     -1102.675533624     -1102.356355391         5.422937982
        77           38.500000         0.281646563       308.808486783     -1102.678692285     -1102.356429445         5.365280546
        78           39.000000         0.287676450       315.419895249     -1102.682841958     -1102.356525077         5.241757512
        79           39.500000         0.296160721       324.722386508     -1102.682175598     -1102.356498364         5.346798852
        80           40.000000         0.285683813       313.235088653     -1102.677974318     -1102.356356637         6.952401131
        81           40.500000         0.307988658       337.691007620     -1102.673529462     -1102.356219005         5.332006197
        82           41.000000         0.283636192       310.989995645     -1102.670246716     -1102.356145174         5.305180516
        83           41.500000         0.292098231       320.268111452     -1102.671499341     -1102.356216322         5.382299788
        84           42.000000         0.319349960       350.147990617     -1102.673448769     -1102.356302368         5.355683364
        85           42.500000         0.324155512       355.416988733     -1102.673504057     -1102.356347537         5.389565747
        86           43.000000         0.300808653       329.818564682     -1102.671330785     -1102.356328113         5.191806123
        87           43.500000         0.297078691       325.728885646     -1102.670057303     -1102.356340372         5.452845443
        88           44.000000         0.300955400       329.979463577     -1102.669580757     -1102.356351231         5.399804767
        89           44.500000         0.292778428       321.013906598     -1102.667336026     -1102.356316568         5.359437793
        90           45.000000         0.274898758       301.409925936     -1102.662884544     -1102.356238183         6.904272307
        91           45.500000         0.273692113       300.086912075     -1102.659033483     -1102.356178724         5.391569771
        92           46.000000         0.263519393       288.933136855     -1102.657525460     -1102.356128008         5.349330351
        93           46.500000         0.271944812       298.171101599     -1102.657041021     -1102.356118620         5.372193620
        94           47.000000         0.261193256       286.382668675     -1102.659305313     -1102.356168408         5.242957678
        95           47.500000         0.268739647       294.656831479     -1102.662257239     -1102.356248589         5.358121883
        96           48.000000         0.277668876       304.447192794     -1102.659258383     -1102.356183994         5.404333591
        97           48.500000         0.283957697       311.342506708     -1102.654190135     -1102.356020721         5.389466599
        98           49.000000         0.275837644       302.439357540     -1102.649218764     -1102.355862121         5.290852871
        99           49.500000         0.271452640       297.631464532     -1102.647594551     -1102.355828560         5.411292952
       100           50.000000         0.259610339       284.647095630     -1102.650520153     -1102.355935729         6.898118846
       101           50.500000         0.269993665       296.031786956     -1102.655543128     -1102.356078933         5.418331504
       102           51.000000         0.273117442       299.456819301     -1102.661215689     -1102.356201154         5.230425701
       103           51.500000         0.272037750       298.273002340     -1102.662388408     -1102.356193925         5.424865939
       104           52.000000         0.271881612       298.101806460     -1102.660090195     -1102.356086814         5.411119159
       105           52.500000         0.261329875       286.532462963     -1102.656857315     -1102.355953450         5.342895344
       106           53.000000         0.257851077       282.718170422     -1102.658945705     -1102.356019583         5.436102826
       107           53.500000         0.267209384       292.978989625     -1102.663842534     -1102.356194618         5.336697496
       108           54.000000         0.273131830       299.472595150     -1102.669023867     -1102.356369503         5.352589641
       109           54.500000         0.279496678       306.451267896     -1102.674150739     -1102.356461531         5.355539031
       110           55.000000         0.269132455       295.087521461     -1102.673751209     -1102.356425879         6.714706272
       111           55.500000         0.265321275       290.908791904     -1102.669773159     -1102.356314786         5.394703362
       112           56.000000         0.277186419       303.918208075     -1102.664105670     -1102.356152559         5.319509294
       113           56.500000         0.266558642       292.265491163     -1102.660314495     -1102.356062526         5.391444117
       114           57.000000         0.280536149       307.590985113     -1102.656732764     -1102.356020483         5.234938238
       115           57.500000         0.282306491       309.532058374     -1102.656574487     -1102.356046989         5.426176317
       116           58.000000         0.276445203       303.105509345     -1102.655533039     -1102.356057184         5.940684926
       117           58.500000         0.269101032       295.053067724     -1102.657561844     -1102.356124044         5.381025765
       118           59.000000         0.278950016       305.851885600     -1102.659062945     -1102.356186541         5.306899730
       119           59.500000         0.294719772       323.142473297     -1102.658528241     -1102.356217954         5.313160934
       120           60.000000         0.290998392       319.062204390     -1102.655979178     -1102.356187313         6.791488931
       121           60.500000         0.289410294       317.320949829     -1102.654228474     -1102.356152654         5.357629463
       122           61.000000         0.293512506       321.818778240     -1102.654109831     -1102.356151272         5.303089600
       123           61.500000         0.289798790       317.746912283     -1102.653635858     -1102.356160746         5.376488380
       124           62.000000         0.290653255       318.683782529     -1102.653659111     -1102.356198626         5.413191263
       125           62.500000         0.293504719       321.810240661     -1102.655324883     -1102.356286393         5.402675521
       126           63.000000         0.289107767       316.989247313     -1102.655456745     -1102.356322046         5.285678338
       127           63.500000         0.294780902       323.209498694     -1102.654167649     -1102.356305419         5.425974254
       128           64.000000         0.277753610       304.540099088     -1102.648018535     -1102.356152763         5.316682559
       129           64.500000         0.272443653       298.718050181     -1102.641070811     -1102.355999393         5.421554834
       130           65.000000         0.271228323       297.385514248     -1102.637696521     -1102.355926513         6.833246268
       131           65.500000         0.275557079       302.131734359     -1102.638538183     -1102.355950547         5.452548128
       132           66.000000         0.285389151       312.912008988     -1102.644284875     -1102.356092329         5.371064588
       133           66.500000         0.292997469       321.254071339     -1102.648624646     -1102.356233842         5.342503365
       134           67.000000         0.294247756       322.624936363     -1102.650661681     -1102.356313493         5.275679234
       135           67.500000         0.300078568       329.018069689     -1102.651084352     -1102.356309325         5.354164895
       136           68.000000         0.302756321       331.954064659     -1102.649784365     -1102.356222999         5.399028476
       137           68.500000         0.297596561       326.296698897     -1102.647359811     -1102.356156656         5.394034579
       138           69.000000         0.273927561       300.345066395     -1102.645769829     -1102.356207648         5.319615714
       139           69.500000         0.267163874       292.929091311     -1102.643835930     -1102.356259859         5.353391916
       140           70.000000         0.278498842       305.357200793     -1102.644009474     -1102.356288923         6.715776116
       141           70.500000         0.264609756       290.128654228     -1102.640916239     -1102.356210461         5.392221224
       142           71.000000         0.275848792       302.451580457     -1102.635774083     -1102.356094080         5.278554015
       143           71.500000         0.257052117       281.842158324     -1102.632946463     -1102.356075802         5.397611205
       144           72.000000         0.282505137       309.749861274     -1102.631876147     -1102.356088042         5.367841523
       145           72.500000         0.285412026       312.937090135     -1102.632540281     -1102.356152565         5.356195603
       146           73.000000         0.278504406       305.363300670     -1102.634513394     -1102.356274715         5.316782564
       147           73.500000         0.279110664       306.028026237     -1102.636342969     -1102.356431654         5.301966399
       148           74.000000         0.292500076       320.708709662     -1102.634719075     -1102.356475181         5.356114037
       149           74.500000         0.296903692       325.537010211     -1102.627935583     -1102.356328849         5.391793992
       150           75.000000         0.294694717       323.115002180     -1102.618372039     -1102.356041840         6.602539826
       151           75.500000         0.285454708       312.983888441     -1102.610707746     -1102.355830728         5.927236039
       152           76.000000         0.274948938       301.464944640     -1102.605851609     -1102.355771048         5.395025186
       153           76.500000         0.269066412       295.015108935     -1102.603421611     -1102.355775819         5.442268170
       154           77.000000         0.252638696       277.003108757     -1102.602446022     -1102.355782216         5.246965986
       155           77.500000         0.252647810       277.013101394     -1102.604834151     -1102.355809262         5.377708066
       156           78.000000         0.248309625       272.256543614     -1102.609458628     -1102.355888298         5.267355990
       157           78.500000         0.263643246       289.068934213     -1102.618092984     -1102.356068239         5.397512548
       158           79.000000         0.280238876       307.265043560     -1102.626226479     -1102.356274483         5.348966848
       159           79.500000         0.291873840       320.022079840     -1102.629618419     -1102.356369292         5.287271891
       160           80.000000         0.292840236       321.081675425     -1102.629537860     -1102.356366097         6.992621798
       161           80.500000         0.275709444       302.298793631     -1102.624362509     -1102.356219823         5.344526947
       162           81.000000         0.275928971       302.539491705     -1102.618502255     -1102.356033296         5.321788348
       163           81.500000         0.280755945       307.831977661     -1102.614171334     -1102.355879773         5.328733943
       164           82.000000         0.272626752       298.918808174     -1102.615104811     -1102.355867588         5.423309337
       165           82.500000         0.267272391       293.048073139     -1102.617988395     -1102.355932335         5.433398210
       166           83.000000         0.264907763       290.455401375     -1102.625436236     -1102.356139894         5.329502653
       167           83.500000         0.275420911       301.982434378     -1102.634211182     -1102.356366479         5.315122146
       168           84.000000         0.282405050       309.640122481     -1102.638226653     -1102.356462593         5.256824438
       169           84.500000         0.274897739       301.408808363     -1102.638711398     -1102.356486486         5.485894512
       170           85.000000         0.283703054       311.063305139     -1102.637262371     -1102.356480571         6.997306675
       171           85.500000         0.261963500       287.227193876     -1102.633265789     -1102.356423526         5.379929572
       172           86.000000         0.259472849       284.496345444     -1102.629518237     -1102.356379038         5.947491817
       173           86.500000         0.267708242       293.525958216     -1102.627344047     -1102.356343868         5.946540698
       174           87.000000         0.268115341       293.972317143     -1102.623903783     -1102.356270201         5.325989999
       175           87.500000         0.254198932       278.713813394     -1102.623240174     -1102.356269032         5.391958524
       176           88.000000         0.258181565       283.080530238     -1102.622985675     -1102.356292320         5.403932109
       177           88.500000         0.259792583       284.846914477     -1102.622778382     -1102.356273750         5.331504863
       178           89.000000         0.264476004       289.982003330     -1102.624436219     -1102.356306102         5.837737963
       179           89.500000         0.278601463       305.469718507     -1102.627970408     -1102.356390687         5.350026477
       180           90.000000         0.289147778       317.033117776     -1102.632555860     -1102.356500100         8.069906641
       181           90.500000         0.294313017       322.696490847     -1102.632866272     -1102.356507931         5.340572271
       182           91.000000         0.285612919       313.157357767     -1102.632410569     -1102.356439970         5.304135941
       183           91.500000         0.294955011       323.400398733     -1102.627983284     -1102.356247809         5.393243324
       184           92.000000         0.286660397       314.305853668     -1102.623820162     -1102.356076665         5.332570344
       185           92.500000         0.271400567       297.574369420     -1102.623813010     -1102.356073205         5.399399910
       186           93.000000         0.289497032       317.416053348     -1102.625702760     -1102.356156846         5.236127011
       187           93.500000         0.284196744       311.604606921     -1102.629628818     -1102.356262886         5.383457743
       188           94.000000         0.294053970       322.412461091     -1102.634304738     -1102.356360046         5.406832933
       189           94.500000         0.293051471       321.313282028     -1102.636546602     -1102.356392267         5.340730172
       190           95.000000         0.281779962       308.954751015     -1102.635920826     -1102.356342666         7.163587328
       191           95.500000         0.270764375       296.876823998     -1102.632599542     -1102.356243037         5.399394013
       192           96.000000         0.256738944       281.498783711     -1102.629646260     -1102.356173930         5.420252968
       193           96.500000         0.264883403       290.428691983     -1102.628836784     -1102.356164966         5.292148247
       194           97.000000         0.266318455       292.002140625     -1102.633475777     -1102.356247911         5.280156851
       195           97.500000         0.278640185       305.512174891     -1102.637926609     -1102.356291810         5.358931690
       196           98.000000         0.282456238       309.696247321     -1102.642045995     -1102.356316372         5.312267300
       197           98.500000         0.279775903       306.757421137     -1102.643919928     -1102.356336400         5.396320190
       198           99.000000         0.272874532       299.190483351     -1102.644839924     -1102.356363966         5.162203915
       199           99.500000         0.268573168       294.474296585     -1102.643768437     -1102.356347692         5.422819674
       200          100.000000         0.273775586       300.178435423     -1102.641159050     -1102.356265959         7.561138920
       201          100.500000         0.265499410       291.104107159     -1102.637896514     -1102.356173781         5.383379422
       202          101.000000         0.271745325       297.952376370     -1102.638600089     -1102.356198448         5.264114395
       203          101.500000         0.284190552       311.597817146     -1102.638957693     -1102.356180574         5.371817328
       204          102.000000         0.289889960       317.846875211     -1102.640799071     -1102.356145639         5.357506424
       205          102.500000         0.297267991       325.936441972     -1102.645175893     -1102.356164192         5.312688258
       206          103.000000         0.299784115       328.695220353     -1102.651038075     -1102.356283349         5.787055884
       207          103.500000         0.293296828       321.582300525     -1102.655585724     -1102.356380959         5.332982685
       208          104.000000         0.300971909       329.997564359     -1102.656368630     -1102.356420015         5.431727007
       209          104.500000         0.293104029       321.370908148     -1102.655457076     -1102.356410951         5.339758459
       210          105.000000         0.284571131       312.015099483     -1102.651698729     -1102.356377824         7.041717894
       211          105.500000         0.284128194       311.529445848     -1102.644157621     -1102.356203031         5.397612590
       212          106.000000         0.275368689       301.925176517     -1102.639230081     -1102.356072683         5.392837193
       213          106.500000         0.273173955       299.518782918     -1102.635773453     -1102.355986967         5.338849414
       214          107.000000         0.281202961       308.322104381     -1102.634530048     -1102.355979883         5.202622890
       215          107.500000         0.276054946       302.677615896     -1102.637166910     -1102.356070090         5.363993730
       216          108.000000         0.285995083       313.576376784     -1102.641485012     -1102.356197814         5.365415297
       217          108.500000         0.294487574       322.887881647     -1102.645655168     -1102.356294283         5.351119176
       218          109.000000         0.281512642       308.661650832     -1102.648727558     -1102.356393338         5.282142743
       219          109.500000         0.279274735       306.207920745     -1102.648766432     -1102.356425670         5.377748158
       220          110.000000         0.295203424       323.672768033     -1102.646923519     -1102.356349520         8.202071454
       221          110.500000         0.287431216       315.151010378     -1102.642928586     -1102.356199022         5.284284186
       222          111.000000         0.265366288       290.958146614     -1102.637121994     -1102.356018176         5.354781892
       223          111.500000         0.265559966       291.170502478     -1102.633444991     -1102.355895426         5.342449773
       224          112.000000         0.271190006       297.343501929     -1102.635517788     -1102.355957352         5.462955765
       225          112.500000         0.286729421       314.381534466     -1102.640625660     -1102.356093974         5.360815033
       226          113.000000         0.284954913       312.435893389     -1102.643639348     -1102.356146494         5.287645813
       227          113.500000         0.299878900       328.799145749     -1102.648836225     -1102.356240046         5.374674052