LAMMPS data file via write_data, version 15 Sep 2022, timestep = 10000

360 atoms
2 atom types

0 6.69432950082169 xlo xhi
0 6.69432950082169 ylo yhi
0 6.69432950082169 zlo zhi

Masses

1 1
2 1

Pair Coeffs # lj/cut

1 1 1
2 0.5 0.88

Atoms # atomic

93 1 1.125209344484187 1.5176729821531052 1.4645003518400022 0 -1 -1
18 1 0.5268306333619647 0.9176651929504333 1.213641467845982 1 0 -1
303 2 1.6532692833595506 1.1117666094328655 1.545662716225256 1 1 1
160 1 1.829501645829045 1.4108407438817088 0.6013326512864929 0 0 0
332 2 3.1966638400547582 0.6154954415579256 0.9074664895684146 0 1 2
53 1 2.721203640141958 1.6576376162853885 0.5560102627335731 0 0 0
210 1 3.013597993190894 1.420576974234171 1.6239961090118356 1 0 0
38 1 2.413678080914293 0.764378355541847 1.1427909325546157 0 0 0
213 1 1.8036805927526471 0.08381329153273377 1.1097366260089547 0 1 0
230 1 3.6361383477823175 1.4863653848035117 0.9049654557457696 1 0 -1
247 1 3.914438673017219 0.453385857730283 0.27720862203494906 0 0 1
342 2 4.140097060281752 0.4345219869511077 1.5311933233265487 -1 0 1
61 1 5.004083171241487 0.3282925839914642 0.6056910530786181 -1 1 1
251 1 4.55147957626955 1.264135224634376 0.6777338959234112 -1 1 0
164 1 6.672840919297067 1.3979440336802265 1.507162720050526 0 0 1
37 1 5.459309540859547 1.639231803270705 0.797895098227495 0 1 0
142 1 6.015396967381642 0.8575424183603231 1.1842032580547681 -1 0 0
182 1 5.824330442938518 0.0021378793388882045 0.12987748645235123 -1 0 1
347 2 5.645566564112384 1.0634585479397458 0.22136510463038622 0 1 1
265 1 6.472391580181947 1.2532501083074672 0.5963099462345972 0 0 0
314 2 1.1057340067470134 2.4023344294222264 1.5263286451007605 0 1 1
227 1 0.5557986123177989 2.6593672566155537 0.02503423765044326 1 0 0
120 1 1.2960234628227252 2.345672690559827 0.8073928266081405 1 0 0
104 1 1.3557455757485213 3.1185567526263447 1.4455049959374233 0 0 1
98 1 0.4732245521070354 2.514087960529282 1.5097260219504536 0 1 1
57 1 0.4614335455639036 1.913149164130501 0.8727396700399475 0 -1 -1
274 1 0.5944282617401659 3.2174210322402543 0.7570046515825039 1 1 0
313 2 1.2129650074977976 3.0318956755559032 0.047995140771846856 0 0 1
112 1 2.0888167250204464 1.7933870115669632 1.5091659323281115 0 0 0
127 1 2.2568657401340246 2.974515585765558 1.3611531117833864 1 0 1
8 1 2.8660827949259895 3.1245406553127637 0.7189453466043836 0 -1 0
72 1 1.7197811266306076 2.1424556590352015 0.05035683139594832 0 0 0
92 1 3.4923444183295307 2.6227131913311297 0.4199224826143529 0 0 0
75 1 3.97432127969081 2.304437559292395 1.1709533755133672 0 0 0
188 1 4.871546350755171 2.6410929528359506 0.5515547835223277 0 0 0
192 1 3.4071667237600933 2.9230519998573543 1.6148354651170573 0 0 1
7 1 4.69532595327761 1.8330557237547513 1.242935337064532 -1 0 0
290 2 5.95105107425122 2.7835448476977107 0.7606298933392747 -1 1 0
32 1 6.44422928824697 2.347462134587323 0.1553830105250255 0 0 0
67 1 6.218036684434856 2.0844866408757077 1.3716668101575868 -1 0 0
266 1 5.4689213397023515 2.5420505593502294 1.2099197247636515 -1 1 0
170 1 6.359438617805108 3.188142347063504 1.3037709209041657 0 0 0
275 1 0.8694522303510305 1.0529497475373875 3.120852130477097 1 1 0
50 1 0.835724488089303 0.19101991686827816 2.7021597782021645 0 0 -1
187 1 0.7611896427821199 0.25149740316490127 1.8187419022102433 1 0 1
43 1 0.17689214543682036 0.9613564594957699 2.720124657106276 1 0 0
329 2 1.661944684582361 0.16869768378723912 2.751801438828704 0 0 0
3 1 2.386738661658653 1.329399125100041 2.3798242283096576 0 -1 -1
270 1 2.7217300022192576 0.5656537130539193 1.9571360550402739 0 1 -1
184 1 2.5518043904281584 0.38787848505311345 3.0859026790627633 0 0 0
201 1 1.7565492082503609 1.3387491936695473 2.8851875075188405 0 0 1
245 1 2.871095654681306 1.5766520154134194 3.0772768717937637 0 1 0
219 1 3.5377066316283123 0.6633709066592216 1.990873273599863 -1 0 0
271 1 3.7187504617369562 0.5489129390187867 3.0028477581101463 0 0 0
107 1 4.78618191270321 1.6155599636348519 2.874821362953629 0 0 0
316 2 3.4620274663399346 1.1062480577692584 2.5514530379233755 0 1 1
56 1 4.4929763534710885 0.6066710207790529 2.422896225252493 0 0 1
102 1 4.323042451820148 1.0832017867361103 1.7505795623997245 0 0 -1
97 1 6.61807565406452 0.07083429293907884 2.503375416800172 0 -1 0
258 1 6.120448949754559 1.4558533163540428 2.3430152266823665 0 1 1
134 1 6.049538451035079 0.3211033694796305 1.9687128277833688 -1 0 0
248 1 5.663464093320478 0.8923756635323774 2.9205485173216443 0 1 1
259 1 5.3602076018064615 1.2531191651824494 1.774398741123523 0 1 0
162 1 0.09941178188988128 3.203980885568357 2.382635534976385 0 -1 0
91 1 1.099112375313281 1.97703561703635 3.203563622264412 0 -1 -1
301 2 1.1713205490151917 2.54299587734823 2.588523950126304 0 0 0
236 1 1.380893257251815 1.7950884294297575 2.206180624568707 0 1 0
167 1 0.1066268747404639 2.3075661891457386 2.3783761677978665 0 0 0
337 2 0.9378157071028737 3.0398335555631246 2.9760046722711846 1 1 1
13 1 1.8839865381105183 3.2537545107895536 3.0735499172260092 1 0 -1
47 1 1.7448059537566214 2.7028528416153232 2.1041711235790244 0 0 -1
94 1 2.231081707923114 2.406374421950914 2.800646586929779 0 0 0
288 1 2.989137587723453 2.2125814841347315 2.111152015325507 0 0 0
286 1 2.5936327325412476 3.0163903259584006 2.2075906758383623 0 0 1
129 1 4.1518836274139135 1.8902906327793103 2.25533913853375 0 1 0
161 1 3.7201658898779377 2.432523224050459 3.0960941170169862 0 0 0
58 1 4.1848269748232205 2.856547420947731 1.9568773830685458 0 0 -2
157 1 3.574137154054954 3.120579662564929 2.7025568971662244 0 1 0
196 1 4.721650801614471 2.6226433186970746 2.947178107034944 0 1 -1
123 1 5.098141739037337 2.771720639656821 2.0601599891281315 -1 -1 0
239 1 5.821529939979331 3.258537488053555 2.0782014505240354 0 0 -1
148 1 5.408238134895676 2.004365125763683 2.299396066642447 0 0 0
40 1 5.96825860079424 2.41365422312188 2.667030788047431 0 0 -1
143 1 0.7800156074744756 1.6397348538183936 4.166339311501268 0 -1 1
330 2 1.3531859657614278 1.3920320594527051 4.753680224301216 0 1 -1
335 2 0.5848058824317965 0.6198582499946717 4.3107739257259805 1 1 1
23 1 1.1546954337756874 0.9184452582511619 3.9953915365320367 0 1 0
122 1 0.4247609841049533 0.23012240122142302 3.497143326346056 1 0 -1
17 1 1.4614181322486945 0.2284091273204571 4.451733708047892 1 0 -1
253 1 2.031701345633488 1.338417719661458 3.64501645452621 0 0 0
318 2 2.7836403472337494 0.6410352993637267 4.78093804366599 0 1 0
42 1 3.044962263160085 0.16256709687766285 3.8714392374643105 1 1 -2
344 2 2.6050883579318382 0.9039268974281814 3.826004611973417 0 1 1
103 1 2.141871324785082 1.06850150066498 4.630724303963668 0 1 0
85 1 3.284253947579548 0.8927947404995643 4.253382983193378 0 1 0
117 1 4.230517307627246 1.161650261372025 4.713717287157637 -1 0 0
349 2 4.936763044455281 1.0206860659453574 3.6298819293523956 0 0 1
5 1 3.50924239645694 1.2010131896488803 3.4137034740681504 -1 0 -1
222 1 4.260267953512211 1.1376223733267734 3.822648530184717 0 1 0
52 1 4.996734588753847 0.05125538578325184 4.607927338465583 0 1 0
146 1 4.035000040624036 0.4008710432834898 4.167413463219551 0 0 0
176 1 6.157650369535851 1.5149854235292066 3.504728548532026 -1 0 0
172 1 5.882846406389385 0.353573569278683 4.644449432188639 0 1 0
357 2 5.632290152267838 0.23263920537299962 3.5182813189791955 -1 2 2
339 2 6.0184406921774265 1.0612915290916531 4.321541273261398 -1 1 1
280 1 5.127756925856694 1.1994519278362095 4.5278636435528385 -1 0 0
118 1 6.667400556513627 1.3487857571260402 4.768317769172919 -1 0 0
256 1 5.578905630391354 0.8010596983293523 3.885483242558649 -1 0 0
293 2 6.520331169736157 0.4572341309538793 3.9903913653836325 -1 1 0
226 1 0.1913261312304877 1.9221899669238967 3.6451290569147474 0 1 -1
111 1 0.2359956378801184 2.7676642098536575 4.230620659180731 0 0 0
155 1 1.0422998844501419 2.765944066940172 4.432591997671221 1 0 0
168 1 2.7448471921495887 1.6863536712907354 4.413169508051106 1 1 0
278 1 2.996789391848257 2.773915931326973 4.371090592658252 0 0 0
223 1 1.729539751025225 1.8785328312670748 4.24994835167706 0 0 0
90 1 2.449416566858314 2.1593666986041664 3.7263139379334347 0 1 0
156 1 1.8231163313138208 2.734590388268592 3.9526381511776503 -1 0 0
10 1 2.17281839334736 2.6341261834787217 4.769857806047636 0 0 0
124 1 3.76234096488936 2.4186537038992304 4.923301617604934 -1 0 0
128 1 4.301604220479398 2.84763691784241 3.9629819165570868 0 0 0
100 1 3.409526427561599 2.0084253382454884 3.923792700301662 -1 0 0
240 1 4.54066676921199 1.9530977463957955 4.698493839243987 0 0 0
310 2 4.7820052498281775 1.93293900083255 3.8217795607127574 0 0 0
89 1 5.458239372095462 2.0857680640076666 4.599864739412098 0 0 0
298 2 5.033006103132189 2.744930983136207 4.582526893896568 -1 0 0
300 2 5.710756088871217 2.6113885594097748 3.5724700320165494 -1 -1 1
264 1 5.177009587358945 3.24228174786835 3.8690925759218375 0 1 0
323 2 5.866923599536725 2.8620658784178685 4.717127797302581 -1 0 0
63 1 5.381962203545635 1.9214249502328462 3.604933133654738 0 0 0
132 1 6.593661488242564 3.069365425921322 3.371992248524744 -1 -1 0
294 2 0.3492303525983927 0.25183563064701536 5.433966566801382 0 -1 -1
76 1 0.8562163147279851 0.5932689798382469 6.449379981305703 0 0 0
151 1 1.6489829974450407 0.7688097818908427 5.252180067269613 0 0 0
33 1 0.7076072003690433 1.5236164292932504 6.520814398536318 1 0 -1
273 1 0.4353820887278087 1.0889096488157146 5.542779261134163 1 0 -1
334 2 2.2580340776679133 1.6408580671390576 5.070382193961333 0 0 0
166 1 2.551265064391338 0.8362997601650142 5.64984551375004 0 0 -1
60 1 1.759656926247041 0.6749740994413069 6.487325656087663 0 0 -1
267 1 1.7471292352282866 1.4880407463692062 6.030546179466804 0 1 -1
224 1 3.1678426683909766 0.4422854876259463 6.348274416261467 0 0 0
296 2 2.4649854993843503 1.20261684961915 6.434686281851177 0 0 0
147 1 2.1252575547192034 0.003382120954816159 5.595551329312753 0 0 0
214 1 3.590590875863833 0.8858479227330921 5.4754542256511725 0 0 -1
150 1 4.472297736359882 1.037418521360599 6.471388301436578 1 0 -1
336 2 4.122228825427961 0.16658690021806472 5.747931558487584 0 1 0
234 1 3.3965984425803986 1.3075442405764444 6.663852287581138 0 1 -1
45 1 5.786605594549601 1.3319688691690008 5.276326536168722 0 0 -1
260 1 5.8163131278005435 0.27538322041921637 6.037885515638153 -1 0 -1
153 1 5.082032241326699 0.7878413717771191 5.45835862703369 0 0 -1
345 2 6.577813360161315 0.8500018956453429 6.067350797985977 0 2 0
252 1 5.8168767129925225 1.0742765505203093 6.166079080814185 -1 1 0
16 1 6.634882744471019 0.13557599709475315 6.01258911261633 -1 -1 -1
281 1 1.2438688669593467 1.6910326020548947 5.418539546445652 0 1 0
355 2 0.45858405574845235 2.2573303640990203 5.806343798933443 0 1 1
79 1 0.5052587255128785 2.3227664356026967 5.104806032737452 1 0 0
144 1 1.145972026990729 2.857977915064751 5.485364207780019 0 -1 0
141 1 2.968944829795813 2.95836188023433 6.347678050376385 0 -1 0
215 1 2.9907188617890927 3.1703649964359846 5.418874318914986 0 0 -1
246 1 1.9278892664871912 3.0944066946462927 6.685595528801725 0 0 -1
195 1 2.6896595689713414 1.904098931590646 6.39794063877511 0 0 0
359 2 1.9409631615963086 2.8852984110796633 5.7676245502238555 0 1 0
19 1 2.988356543786703 1.728021282798041 5.61317319996648 0 0 -1
74 1 4.815116912872856 3.2831120527342077 6.538629113324346 0 1 0
287 1 4.028123128151102 3.086316568185915 6.586425847504685 1 0 0
145 1 4.000946999751604 1.8234135424779652 5.68343278507851 0 0 -1
194 1 4.343672186114546 2.6528133730781294 5.401858821587432 0 0 -1
352 2 4.846380132382004 2.591905336826955 6.024549339858086 -1 0 1
130 1 4.113142691598525 2.0008548693209067 6.618016630060627 0 0 0
115 1 5.025013847553216 1.9801846341777856 5.447104616497003 0 0 -1
356 2 6.5308338434856665 2.6844511096730783 5.785008504570818 0 1 0
186 1 6.259651900720536 2.132148886630385 5.105903586577257 0 0 0
11 1 6.57288590596136 3.0588893678010187 5.16090280599222 0 -1 -1
326 2 5.074291891777589 3.056065524601718 5.322232134844113 0 1 1
15 1 6.4455179635879425 1.7338599913612929 5.950708348064681 1 -1 -1
309 2 5.578684022541027 2.6999194220387035 6.671992206768723 0 1 -1
121 1 5.117149899859021 1.7461865120820168 6.622413440189268 0 0 -1
199 1 1.3124908724155782 4.370980168720919 0.19242883818307951 -1 0 1
255 1 1.3342055122309886 4.326717685140825 1.319711126936181 0 0 0
1 1 0.40200913817051503 4.731383799002249 1.5026386060431391 0 -1 0
202 1 0.737037467279721 3.8539632369468757 1.5668108591462881 0 0 2
360 2 0.4715397857012525 4.166544276930654 0.6871115871579374 0 0 2
225 1 2.0529194808929954 4.944069127974139 1.2447404697590199 1 0 -1
88 1 1.6814944850332627 3.6790491852037226 0.595187803205981 0 0 0
27 1 2.8545994077042818 3.7395951081828063 1.6152156812000829 0 0 0
338 2 1.7368904795032385 4.48685526115621 0.6859841003577739 0 0 1
133 1 2.550625063563516 3.9227656197299448 0.5132155915437114 0 0 -1
21 1 3.402750041838126 3.8755867898099803 0.6833256659432989 0 0 -1
321 2 3.9089572906018764 4.285261093150771 0.5447915584104064 0 0 0
254 1 4.679069977411168 3.633201937932345 0.5910881185380076 -1 1 0
26 1 4.732638278167261 4.45511914875358 1.016288055124329 -1 -1 0
163 1 4.100227266888874 3.913969169761132 1.2850782772861726 1 0 0
109 1 3.5652562415338873 4.610318366378013 1.5132245798186699 0 0 1
36 1 3.4633278261495453 4.935087935435996 0.5979664099043127 0 0 0
169 1 5.846504209864036 4.482156307873162 1.6392789756968051 0 0 1
30 1 5.56620808818532 4.6938553716564355 0.7892277147375911 0 -1 0
315 2 5.14630127653842 4.3150369357315235 0.35284233465654713 -1 0 0
179 1 6.403211905131856 3.7075969086208094 0.3639685083571977 0 0 1
77 1 5.538894412858873 3.859644868964811 0.9512943172705034 -1 0 0
34 1 6.523944000930781 4.797671081996901 0.6856888872172026 0 0 0
65 1 1.6352996692131745 5.782605185420721 1.1445448179353597 0 -1 0
341 2 0.6692487538294142 5.5796709674893386 1.4911853796128078 0 0 1
152 1 0.9316267012923746 5.060981884611155 0.9303028964115216 1 0 1
39 1 0.41508323543711306 6.596829507323698 0.3222926898721609 1 -1 0
113 1 0.44700369989930594 5.674261427852609 0.4838747092175901 1 0 0
340 2 0.8296153479358361 6.291681757369358 0.947687288919769 0 -1 0
308 2 2.342657521766883 6.025462898530369 1.2761766548604299 0 0 0
211 1 3.235334467083693 6.5611043868194 0.8885476703237335 0 -1 0
231 1 2.924520122932443 5.321046054556002 1.4029941007836622 0 0 0
137 1 2.3098008163163772 6.487641740930559 0.14400739686104905 0 -1 1
319 2 2.030361961173702 5.923781961048882 0.4640821571918437 1 0 2
244 1 2.7977963045822722 5.289473777921306 0.3204436431158659 0 0 0
312 2 4.458548283155106 6.394128051272153 0.36949263320409864 -1 -1 1
324 2 3.6831061926975215 6.23731022795952 1.4664870260820186 0 0 1
62 1 4.319411799592949 5.2074323825982045 0.8113137692880203 0 -1 0
203 1 3.4962326166222444 5.786000129782405 0.9522975035144453 0 0 1
106 1 4.386818266603687 6.522275056869189 1.214022704778548 -1 -1 1
358 2 4.316288406499922 5.6968681156748415 1.3512650886783029 1 1 1
257 1 3.603565748581622 6.311688269554491 0.06010189456581156 0 -1 0
185 1 6.377317127051307 5.366575388042933 1.4895794448073014 -1 -1 0
237 1 5.888729411485106 5.815338673832309 0.8250653042613152 0 0 0
317 2 5.228787210642599 5.855899497446707 0.3419558308859181 0 -1 0
70 1 5.248624952959709 5.466991051279505 1.2600342813302061 -1 -1 0
24 1 1.5401095673091105 4.595863868914087 2.483382940925417 0 0 -1
229 1 1.5031874303943995 3.614102147269873 2.285922551281819 1 0 0
12 1 0.8445619814509108 4.096238928505097 2.469234841948725 0 -1 0
249 1 2.66671747836251 4.562322871861815 1.8648962204438317 -1 0 0
235 1 2.179837639847419 4.491206291007835 3.19388054006029 1 -1 -1
71 1 2.5932235553265945 3.9893387511152056 2.50010511781059 0 0 0
302 2 2.7364241038525976 4.050885796332437 3.323058589216363 0 0 0
327 2 1.9586650995735013 4.320912679059756 1.7632252226471739 -1 0 1
87 1 4.494460603362472 4.677539996782777 2.2341012464191334 -1 0 1
101 1 4.641444401680728 4.653840219816929 3.3471304624583658 -1 0 0
282 1 4.778758776920961 3.580802442576687 2.9154121907480937 0 1 1
292 2 4.968597986602603 4.987341256964901 1.7419976717910721 0 0 1
49 1 3.5722318600823253 4.7548911006846675 3.228875660681306 -1 -1 0
325 2 3.3527679556026313 4.906299144287891 2.2285535596656163 0 0 0
268 1 3.8280608518030053 3.910208070773822 3.181566552239438 0 1 -1
306 2 3.793741279055003 4.381313410730891 2.4971271330042475 -1 0 0
206 1 3.556823884536733 3.8333770953839554 2.154874065489235 0 0 -1
242 1 6.123658961312723 3.697694707369147 2.89446504944088 -1 0 0
283 1 6.14562731391241 4.7757964231391 2.3640975157134414 -1 0 0
354 2 6.542089680433844 4.729631421012849 3.173540133673762 -1 0 1
82 1 5.398267384620517 4.207765021509924 2.5158026057100282 -1 0 0
136 1 6.655424921034033 3.9878699914783513 2.052520807340719 -1 0 1
78 1 5.088741386801366 3.661301597898906 1.7738565033942262 0 -1 0
216 1 0.23524832042774388 6.019172503032119 1.8691110450456296 0 -1 0
114 1 0.6830672247074778 5.166147698111363 2.409237998390754 0 0 0
135 1 0.4278084794360129 5.992056483788234 2.7751159757441366 0 0 0
250 1 1.329139383260365 5.27109221715926 1.7837383767328219 0 0 0
348 2 1.2854034358233184 6.316068032889921 2.377159769812912 0 0 1
276 1 1.974564075058494 6.07353504361734 2.377163474999183 0 0 0
284 1 2.83466809104581 6.2877933488064475 1.7960766066645535 1 -1 1
14 1 2.5523068844236785 6.09015126766924 3.255334846106544 1 -1 -1
180 1 1.6884707924645108 5.556605877246379 3.1472516610871044 0 0 0
291 2 1.9770623501920543 5.408323894054636 2.0081007415999634 0 0 1
221 1 3.009389069609538 6.634976445654029 2.528850664108404 -1 -1 -1
66 1 3.4246452058472867 6.2278374406879005 3.1388930376396407 -1 -1 -1
6 1 4.0609952667464215 6.543050575357949 2.3383054473275386 0 -1 0
99 1 4.559590130697765 5.974660540257392 1.9357354996809573 1 -1 0
54 1 4.231888397374402 6.022492386980032 2.9640788291426707 0 0 1
198 1 4.924885550894037 6.66050417745302 3.222619953246645 1 -1 0
295 2 4.544688382703508 5.394310418751566 2.5122223504496026 0 0 1
80 1 3.4662981183326043 5.775077363783808 2.241583119215773 0 -1 -1
55 1 5.275015249316066 5.113909882356463 2.9841612865480496 0 0 0
138 1 6.047330548704172 5.803619067482113 2.1922183336854446 0 -1 1
154 1 5.145481057039028 5.9877231239896505 2.696325566395503 -1 -1 1
299 2 5.395834551318589 5.303901756043123 2.2896260115333593 0 0 0
181 1 5.8440206586493435 6.448867542894912 2.8915948894975756 -1 -1 0
81 1 5.355159780870722 6.6300630588988865 1.7531441807751305 0 -1 0
86 1 6.349538297796411 5.613744700650877 3.109333160565333 0 0 -1
289 2 0.0056737178934991 4.0793506679568905 4.632772827822141 -1 0 -1
269 1 1.4748315669330154 3.60921437852654 4.549992537383625 0 0 -1
200 1 0.6954043178300631 4.381680434244761 4.294872937933782 0 0 0
311 2 0.4705904292110307 3.619695904591068 3.916338772316171 0 0 -1
64 1 1.588623778679503 4.547472756659106 4.807211732183701 0 0 -1
48 1 1.2733290363902587 3.5577449316597827 3.6348025816789207 0 0 -1
165 1 0.3134331137549848 4.0531960840352985 3.35349596975808 1 -1 1
217 1 1.0047211742388058 4.933535118423971 3.353262111209616 0 0 0
51 1 2.792194632480088 4.908979158144278 4.935222912214343 0 -1 0
41 1 2.170319102949419 3.847372215817901 4.050168970832094 0 -1 0
178 1 2.7297376857756115 4.609104735032823 4.054671563345164 0 0 1
110 1 2.89785251872322 3.810118881088146 4.5592090108070344 1 0 0
149 1 2.8020171985615914 3.362369122438675 3.479890121201116 0 -1 0
177 1 4.0374857648311115 4.090105397938167 4.985243739967138 0 0 -1
350 2 3.8368057081659543 3.420124896183657 3.9353946337220136 0 -1 0
44 1 3.8146671605106235 4.888514466176125 4.938034725296451 0 -1 -1
4 1 3.7825499647378167 4.646655028896403 4.028912109028125 -1 0 -1
220 1 4.686655151461023 4.772081362822421 4.2788845833234666 -1 0 -1
119 1 4.521277067910303 3.573678734880386 4.413828442653347 0 -1 0
174 1 6.109840498678561 4.246521896604414 3.695306253496103 0 -1 0
189 1 5.273279870286588 3.682523303848684 4.967338957660719 0 -1 0
159 1 5.7137546672255235 4.918791024170063 4.641905880431279 -1 -1 0
20 1 6.095846539417532 3.5677906734943376 4.398126217342018 0 0 -1
29 1 5.331963046017929 4.085516354647375 4.160537975034945 0 0 0
193 1 1.4680292392016172 6.480959771205908 3.5738744313351023 0 -1 0
126 1 0.3423756032652595 5.028102269457728 4.904580565890133 0 0 0
305 2 1.0973722475075458 5.220464130245871 4.09814071710987 1 0 0
96 1 0.19157773283293986 6.0402757325195235 4.1238758999249345 1 -1 0
191 1 1.539093524869769 5.870749522240955 4.437361297144268 0 -1 0
190 1 0.5099730237444648 6.350442749227046 4.892760141106786 0 -1 -1
307 2 0.878538321960939 5.695004070228956 3.3666577319310567 1 0 0
68 1 3.2364647241021487 6.552559986907746 4.8292270013900245 -1 -1 -1
25 1 1.8713988789673746 5.090314124695096 3.9299411611158663 0 -1 0
125 1 2.772423789925649 5.71321513844446 4.089164576483488 0 -1 0
95 1 2.5234596161623215 6.000640422897826 5.000555291570394 0 -1 0
353 2 2.1822879736128042 5.398037580802865 4.725173013929934 0 0 0
73 1 2.34754822798525 6.560250948273809 4.2630341297408965 0 -1 -1
207 1 3.034302470861446 5.363001137113888 3.3904887714998644 0 -1 -1
197 1 3.681676605871082 5.7019902007091705 4.199642303460224 0 0 0
343 2 4.013036752964261 6.541733848177949 4.741928806642581 0 0 0
333 2 4.234625746750509 6.664314475543465 3.5880668838312273 0 -1 0
233 1 4.543206909422528 5.733851110921661 3.7770699400393326 0 0 -1
297 2 4.342997156103491 5.850533405603913 4.6676896577391185 0 -1 0
9 1 6.535850117088266 5.1114385878843045 3.7821554716355825 0 -1 0
351 2 6.288312319573709 6.5773734938973165 3.434893754792017 -1 -1 1
116 1 5.726324433716856 5.713564223206401 3.6999955485622724 -1 -1 0
173 1 0.8034814966665942 3.6944696416665055 6.493230473305205 0 1 0
140 1 0.5206867368756637 3.6699284038744895 5.281175382633155 0 -1 0
243 1 0.42952369456529743 4.9764346099636265 5.713686098587384 0 0 0
331 2 0.9214318461652963 4.658866533085849 5.040523163503223 1 0 0
158 1 1.1097001714038384 4.293593910277441 5.771904051253528 0 0 0
175 1 0.14070351882152865 3.386086798585245 6.127568455463436 -1 0 0
320 2 0.049360841272767644 4.102094060845375 6.032374640998687 1 0 -1
262 1 0.07682235929863997 4.916139797311604 6.555056053846395 1 0 -1
285 1 2.3465433849500377 4.0559551627843256 5.199036585234865 0 0 0
108 1 1.8055172649203828 3.736510164390943 5.850348372308085 0 0 0
69 1 3.2796678502113696 4.301311381094853 5.464350906253607 -1 0 -1
22 1 2.0342821436601044 4.53431166526712 6.282985090168276 0 -1 -1
171 1 3.346049485213331 3.766848627855409 6.187074029006197 1 0 -1
279 1 2.954295886830182 4.540964259036165 6.4118938146148166 0 0 -1
209 1 3.9902486957869843 5.018369262000667 6.09763064460235 0 0 0
205 1 4.155182766334442 4.21354893095667 6.568671833916465 0 0 -1
84 1 4.576915634110389 4.764291872838739 5.280595131085554 -1 0 0
272 1 4.648053626101521 3.8374500621481276 5.700255723217986 1 0 -1
322 2 6.1169058241886525 3.502231751529312 5.983256250672858 -1 0 -1
31 1 6.174473147160491 3.8950149911267364 5.232800072012477 0 -1 0
105 1 5.984589391986836 4.392658262186958 6.515739687427434 0 0 0
241 1 5.032354298137342 4.575712030374618 6.284272551609848 -1 0 -1
238 1 5.456659690957533 3.636258283086964 5.9117641061077615 0 1 -1
83 1 5.4474387207615145 4.470610504596513 5.387529867454509 0 0 0
212 1 1.3686820551743637 5.262694853609222 5.167689754482064 1 0 0
183 1 1.229934583063552 5.3162523832224045 6.2114984859489955 0 -1 0
218 1 0.6497137661555498 5.991176998354507 6.26744497454689 0 0 -1
328 2 0.338008429356035 5.702546808701503 5.5591840797878005 0 0 0
35 1 1.1525798315531 6.400379440284425 5.560254759253034 1 -1 -1
131 1 1.5043479681068648 6.465826507188929 6.543176315456682 1 -1 0
277 1 2.0088212435188266 5.561661107195289 5.904651738501366 0 0 0
139 1 3.208050034066351 5.5140558543543055 5.99655001760012 -1 -1 0
2 1 3.2663383381743 6.441451849221971 5.844325240487974 -1 -1 -1
346 2 2.134007252267112 5.09435776733293 5.42613364109898 1 0 0
263 1 4.6451960109518105 6.363973046038392 6.3003189985689465 0 0 0
261 1 4.073098553430211 6.0020483565297456 5.395756530617045 0 0 -1
228 1 4.612032689922333 5.457087498289902 6.576999092528432 1 0 -1
46 1 4.850091716240087 5.687822701821225 5.255801349140697 -1 -1 -1
28 1 6.121842633843004 5.181114804601945 5.811068503977355 0 0 0
232 1 6.380993191344959 6.10519919565702 5.848628685923007 -1 0 -1
59 1 5.299322640319374 5.338362401656939 5.857695264132083 0 -1 0
208 1 5.281693924855274 6.545997267385894 5.528514337425232 0 0 -1
204 1 6.001773069662394 5.866479432976027 5.097139690069027 0 -1 -1
304 2 6.25073596036868 5.506516018958223 6.449181146665337 -1 -1 0

Velocities

93 -1.4031056778163302 0.8025002229351742 0.2763253266099811
18 -2.9913989476558265 5.168209632205896 -0.7191824318270236
303 -1.288763395601225 4.991583273274508 6.049016514471652
160 -3.2305651109739753 0.7456559006395495 2.803996133049878
332 -2.2245215946716903 -0.12960842772546477 -4.801061564287298
53 2.6428396913737227 -3.994247925632995 3.8471508011940663
210 3.751593072403416 1.3465660648246465 -4.299397792413425
38 -8.21792277732196 0.3460047979600558 -2.243156385913876
213 -4.2001280476589535 1.4338463669950725 -5.807993504130398
230 -0.31572101216095333 2.6358291282445547 -3.9304752929223574
247 1.1471340281859999 0.04720882846716618 1.6197875225946787
342 -4.229294224154049 -3.3614841042456747 -2.6661257755088568
61 -1.450989333461927 5.5239853287749865 6.93589694666739
251 4.645078967213955 8.502458691130077 -0.4056345952618287
164 5.069055009433971 3.191418413991691 -2.4400539875324436
37 2.2383053122809495 4.847226565809338 -0.17468744840523356
142 3.556586122621692 1.8383146432296078 5.068369193303178
182 -7.023851725680206 0.2833913430028483 -0.492266065020673
347 -2.316189286049231 -11.244045041234743 8.122621477572688
265 5.595085596110474 4.295477901532674 6.466088600663728
314 0.2862720218891469 -5.141346990480235 2.2994270889377986
227 3.4709652617316813 4.974291378857663 -8.235821312726653
120 -0.6112522680296582 -13.27124760307231 1.733168966416633
104 3.4423342900361265 -2.6652195448788234 -2.1879546445820672
98 -2.413901103852851 -2.1387671987310397 2.4715406781296183
57 -2.448965423237042 4.793002305653 2.693727069080135
274 -4.303155489866504 0.032585052547922586 -2.7888968217538905
313 4.4852377268489665 2.925147060478807 3.519801040182424
112 0.5841389640780189 -2.999483918582547 -2.208269989726145
127 1.331415208767598 14.650636652304978 2.1853706170300162
8 3.493811623297725 0.4366309236245426 2.204391717145365
72 8.44892711927944 3.641249098730414 -1.384408552315869
92 5.274303002415428 5.236317364791136 2.398983658993063
75 7.188934395053282 -2.004208585306851 -1.4151151684392855
188 -2.838754323325225 3.4784907551961624 -2.385832116442542
192 -10.30264479911102 8.763591591867792 -1.7358361835494351
7 -0.33977723558271855 -3.453017745740025 -5.3108063040776745
290 -1.5648967112859704 5.18686237122751 -7.157082399804097
32 -3.2754719763197913 2.9210853940455914 1.066099849003095
67 -1.6746609008090865 -3.0445503308114046 -3.6064143063135177
266 5.596675313862845 5.1365843314552935 2.7283823328079317
170 1.666718838400371 4.75937648155503 3.5340116389120704
275 0.8545865868704118 -0.22243184831631602 2.029702651639639
50 -5.884074242231842 2.645583638130301 4.174374068292133
187 2.1685453852042342 2.912487765997941 -1.256222016948312
43 1.782104029154035 5.013520419391357 -4.819729152390861
329 5.460870595112849 -5.598447002602328 1.6340573769572568
3 9.068936779077829 5.62678246501276 2.21981861382456
270 8.689131614970558 -2.17789819323348 -3.166661577234185
184 3.6955720757499693 -6.225046978729779 -3.489731517076862
201 1.750532240200317 -1.4700892805836503 1.0915708413004368
245 -3.011501897825393 0.060594399031211804 -3.219951331790972
219 -0.8704225832508514 3.511202430895346 3.833495561277812
271 -0.5488896559132541 -3.412570082659244 -1.6333172480536708
107 -2.113220700512835 5.332167771648511 -1.0730229518641001
316 3.943693799566135 3.836263123986058 -7.787779127449669
56 3.0362730526422617 6.080029143420827 -3.3084140554658354
102 -3.815761617132539 -4.77067522000561 6.392769963313222
97 6.773571798861911 3.1761738806617843 -3.7662570017806645
258 -3.820968243078007 5.499262916028531 3.8398289987380108
134 -2.575359221969773 -4.902818356785388 2.9154085090316277
248 -1.198047663837388 8.259702112823257 -1.7090196881774273
259 4.822574736358577 -1.7874782973129093 3.290585882393957
162 -3.3036205090238275 -4.845421044969836 -3.1909863576976747
91 0.858693621813481 -2.431747361871604 -6.067223459071071
301 -3.042149018772812 1.887859916893622 -1.1979866692306251
236 2.126542893239737 -3.8482184793458134 -5.0148937097014
167 4.2254594903858855 -1.0273808448504127 2.9894533140259916
337 6.8440526738779255 -6.70579991775375 -4.42661996840681
13 -6.379592976808737 5.015516986008769 -0.42363622940029605
47 1.4219689544223995 3.498245538671648 -4.773617783465933
94 -1.1364424377810727 -9.33223545057491 5.550163073718067
288 3.3744250742196145 -6.592553010111969 -0.5449281829952681
286 10.692627051311359 -3.307255602910496 -3.3210015403034103
129 7.779789916763918 -4.367839563150435 -0.3140301739325968
161 3.3199050247465265 -1.5018248649719226 -2.3588568848542395
58 -2.4836403226685833 2.2975687110346685 -5.60341071491258
157 -2.365867548552525 6.213464731964112 -1.5903597900761652
196 6.173574937242047 -1.5977889762886932 0.48686292583350094
123 -3.0671460304128515 -7.373809384199825 -7.4194704418055935
239 -4.885555887590966 -3.2212739878319767 -6.276516366511691
148 4.1523819253222545 2.6861433681441156 0.4174660075759711
40 -0.4027827666842101 -0.17177519709472044 -1.8178011369329592
143 8.470891572810661 -6.44947254379996 -2.292756362773826
330 -3.6505564945683333 2.664591113202427 6.939698136321053
335 2.9033755498135942 4.978121883279334 -2.2053898013869326
23 0.8408664237766087 2.901197651011659 7.117401222461591
122 3.098468171644087 -5.333017973787709 -6.531684010061661