LAMMPS data file via write_data, version 15 Sep 2022, timestep = 50000

360 atoms
2 atom types

0 6.69432950082169 xlo xhi
0 6.69432950082169 ylo yhi
0 6.69432950082169 zlo zhi

Masses

1 1
2 1

Pair Coeffs # lj/cut

1 1 1
2 0.5 0.88

Atoms # atomic

224 1 1.1157559103884112 1.5596655642740085 0.4490797786575174 0 0 1
17 1 0.8604098759824557 0.6574317515432531 0.8727381382604871 1 0 0
35 1 0.06921270581130864 1.1562915330146872 1.3160412894982472 1 0 0
172 1 1.649773665056622 0.5553800353384449 1.58035123549978 1 1 1
120 1 1.1217293049454222 1.3314972891263401 1.5527122521892058 1 0 0
294 2 1.6940136936838828 1.0183448209475954 0.8063631049008559 0 0 0
94 1 2.6106196479283477 0.7599638149614755 1.1836873948675612 0 0 0
39 1 2.320194912276239 1.2347672389948945 0.20535675714161897 1 0 0
60 1 1.9843822585128847 0.3473417440063428 0.5526563049832124 0 0 0
150 1 2.9459614599601207 0.44308713771950686 0.1890871926222372 1 0 0
247 1 4.677297524721322 1.3630352164579727 0.548511622816013 0 0 1
340 2 4.080026110099851 1.150494709614261 1.0462839128903083 0 0 0
61 1 4.596885548718084 0.5756125173128415 1.3231286233854445 -1 1 1
249 1 3.967454897477057 0.4628019750091818 0.24773846274672714 -1 1 0
240 1 3.484746333070955 0.3307935072909818 1.165005828347516 0 0 1
129 1 3.378968675793966 1.411872438085332 0.8264956888467854 0 1 0
334 2 5.4712844991042076 1.2018545465193364 0.5384858168902412 -1 0 1
258 1 5.588100005970552 1.1086140596392564 1.4426512948210144 0 1 1
257 1 5.179727012965386 0.49859239309582953 0.22268840829765826 0 0 0
259 1 6.303146965552627 0.754413510804451 0.5561785056499701 0 1 0
273 1 6.5028979503057665 0.0362251552750559 1.3522512183452602 0 0 0
125 1 5.467440106195868 0.1174222782126337 1.134509853450157 0 0 1
162 1 0.7367812974348766 3.086251969289275 1.5607180106894114 0 -1 0
195 1 0.4917671635244396 2.051730666671155 0.970955797488718 0 0 1
130 1 1.0152951541458695 2.983137030377115 0.5969143537849761 0 0 1
246 1 1.4425183426206132 2.322924926815101 1.3162626334205705 0 0 0
27 1 2.4275762787791284 1.8093453890528572 1.1853375747238912 0 0 0
348 2 2.831771171767962 1.9338999671619401 0.1276142731061097 0 0 1
263 1 3.2823870636319246 2.357862990743301 1.5948647735675139 0 1 1
189 1 1.8294522192875176 2.3375656168754424 0.15554999119407587 0 -1 1
90 1 2.295554751267593 2.8038610319673984 0.973941923055518 0 1 0
54 1 4.716602096768661 1.7993740907982625 1.56634891795301 0 1 1
177 1 4.828894657345931 2.855135115416567 1.0356830724016741 0 0 0
59 1 4.0614281236497405 2.2528777638741837 0.9695042847123659 0 -1 1
291 2 3.7160384764457204 3.039233509662676 0.08980412680453152 0 0 1
121 1 3.3649577968845894 3.1656441443874566 0.8290315520558862 0 0 0
67 1 5.640065362022823 2.168401463967804 1.023273253697332 -1 0 0
104 1 6.162472498755796 1.8034527889057468 0.22619459461985167 -1 0 1
274 1 6.5997720601095855 2.879731396668573 0.8916171034125107 0 1 0
304 2 5.843662067491814 2.861550582046122 0.4948047639009285 -1 -1 1
287 1 6.448593226116899 2.0878601575043847 1.5634798333393611 1 0 1
158 1 0.21414544437018465 0.27382167220708153 2.8863936558607355 0 1 1
18 1 0.7016603662696179 0.43303273816320365 1.8677101756357737 1 0 -1
167 1 1.2709087617419377 0.8682424664273493 2.6565045386572503 0 0 0
93 1 0.2952895285730766 1.2233839124618315 2.32262859189863 0 -1 -1
329 2 1.590366312267627 1.570724667114353 3.174843304063978 0 0 0
207 1 2.010014194889182 0.13132287626971514 2.475530705257372 0 0 -1
178 1 2.30243462857343 1.0935318862481758 2.85580092263632 0 1 1
225 1 3.168438961669884 0.417712729736675 2.234325810512061 1 1 -1
152 1 2.892877000156736 1.401553665656839 2.004945737113961 0 0 1
357 2 2.113843945221969 1.1618867691004664 1.8768073309594808 0 2 3
275 1 3.3137267057728748 1.0279211344847907 3.0002972956262557 1 1 0
231 1 2.924711796782911 0.050551349805802476 3.2060728371697556 0 1 -1
354 2 4.590323602769029 1.0973627230822385 2.140172941947758 -1 0 1
250 1 3.823347634995096 1.359257171379452 1.921911677765922 0 1 0
219 1 4.496808417180582 0.81074414479851 2.9006366428349217 -1 0 0
344 2 3.881393405048261 0.186561006839826 2.9479846284033036 0 1 1
185 1 4.258659095588409 0.1978140176969851 2.1880570421249863 -1 0 0
196 1 6.515306381309378 1.2907339094575174 3.20383981760723 0 1 -1
293 2 6.209189011207095 1.4514510169400947 2.0697235906021803 -1 1 1
198 1 5.37954429326762 0.38525440233909675 3.271276491402315 1 0 0
124 1 5.553725806398258 1.2302987368299125 2.7250748144291146 -1 0 0
230 1 5.257113750028355 0.44319985195008543 2.177388803276121 1 0 -1
123 1 6.182519195598534 0.6335992690097769 2.0808011701652016 -1 -1 0
292 2 6.185583289477947 0.05828944878066301 3.3358523887908853 0 1 1
108 1 0.8069607672382209 3.2552562205816007 2.9322797565182293 0 0 0
347 2 0.27171400466955004 2.4749611533008564 3.1401605499029275 1 1 1
262 1 0.008691304283982685 3.062168814201963 2.3324153573759165 1 0 -1
112 1 1.5642413877942862 2.891337387642348 2.3278407274112554 0 0 0
251 1 0.793914548508164 1.8242037500358723 3.117255660669424 0 1 0
141 1 1.6482048343169298 1.727044694523741 2.303338802793106 0 -1 1
236 1 0.699404386995488 2.152986357995189 2.1376504690171694 0 1 0
200 1 2.457492407074374 3.1910943123763102 2.8446287743350673 0 0 0
226 1 2.198265154759495 2.1323157264275596 3.056568979930641 0 1 -1
47 1 2.412463667426812 2.350674973018792 2.0535360441477977 0 0 -1
107 1 3.273730593461168 2.2884734044020916 2.552109143743908 0 0 0
188 1 4.671333761120815 1.8688824310251115 2.5757977953707805 0 0 0
290 2 4.070938544299821 2.1600086636566322 1.8252555005483149 -1 1 0
235 1 3.4540295631906983 3.320321557996564 2.5776091918817627 1 -1 -1
163 1 4.189788583183688 2.7154737199849417 3.1439557916002845 1 0 0
239 1 4.783656115930905 2.8226284605223726 2.269980613457797 0 0 -1
323 2 3.8902485032411325 1.8064832234822787 2.7968715771957338 -1 0 0
64 1 3.9614668429800033 3.168352087379272 1.7134111260912195 0 0 -1
132 1 5.7410514014209015 3.0279872038480486 1.7107083329075223 -1 -1 0
173 1 5.552463977999524 2.1059868747810935 2.118194985193971 -1 1 0
232 1 6.4278643929522365 2.107655131008916 2.5843877300474363 -1 1 0
210 1 5.696713513259282 2.9570178568322447 2.78142662787058 1 0 0
23 1 0.21671743713181382 1.5555150786806107 4.168466753623891 0 1 0
335 2 0.14570707970495467 0.5688952069885818 3.667751021379672 1 1 1
264 1 0.865785515332174 0.9967533018662865 3.625224504521096 1 1 0
161 1 0.6243089943684239 0.7336413791993726 4.73537940579435 0 0 0
82 1 1.600203919904387 0.32129255003208734 4.706296795676964 -1 1 0
327 2 1.3413274961306991 1.0842129470523163 4.763336044277191 -1 1 0
3 1 1.852251054245951 0.7541587554739988 3.7537608949978933 0 -1 -1
176 1 2.239529546466932 1.0527582041363746 4.6968678619968545 0 0 0
166 1 2.724469317377216 1.253427739043108 3.8102958101926854 0 0 -1
4 1 2.5787070687651306 0.05748815791955945 4.1561243297648085 -1 1 -1
68 1 4.158090346412302 1.4784140546605995 4.535813926134182 -1 -1 -1
358 2 4.380459645844367 0.25720388793325366 4.47892212964953 1 2 1
221 1 3.9627036327074516 0.5962058972096417 3.8006734867372454 -1 0 -1
49 1 3.3880638631556095 0.76571962383523 4.630743359140513 -1 0 0
43 1 4.888484816652566 0.9997340721673437 3.913464684924606 0 0 0
325 2 5.678640243396248 1.311147601659676 3.619066086977462 -1 0 0
128 1 6.2988660343844565 0.685850182791781 5.000873666228749 0 0 0
48 1 5.917789259208868 1.5410696440052156 4.388548275101623 -1 0 -1
280 1 5.2903768180379815 0.7695516753665539 4.84291129581443 -1 0 0
63 1 6.0729926163062125 0.6434555326732571 4.013249737018187 0 0 0
260 1 0.7510876668838732 2.505855467262819 3.9583692450754717 0 0 -1
215 1 1.5590818735895429 1.7129656517489045 3.9921122611604427 0 0 -1
19 1 1.5776406067974178 3.0075147156021704 4.426938821003296 0 0 -1
15 1 0.590278445797214 2.9559997950742107 4.883889848125341 2 -1 -1
79 1 1.0344704016495871 2.025528991737093 4.839238013991493 1 0 0
238 1 1.573115019822144 2.7687693788710734 3.405968828451806 1 1 0
206 1 2.467980714866553 2.268159200151905 4.0375714183219795 0 0 -1
149 1 3.268748944495544 2.8667307936677715 3.488652669804493 0 -1 0
155 1 3.148798614920006 1.8650605202795056 4.539781402281513 1 0 0
314 2 3.0782808188740804 2.704693176570267 4.362326495272914 0 1 1
53 1 3.343162023723619 1.9344045684721074 3.5164244821953217 0 0 0
77 1 2.451428648919831 3.3217611456760268 3.9984710338746257 0 0 -1
168 1 4.240776537081681 1.7467839610716533 3.57194667155454 1 1 0
105 1 4.675431953984662 3.140601481791086 4.469993000783335 0 0 0
157 1 3.9942419958093933 2.477955149228981 4.125510549286258 0 1 0
343 2 4.357412295431984 2.1338164050687594 5.011174383909402 0 1 0
295 2 4.8381065978757505 2.7164254448764016 3.7401009684003026 0 0 1
12 1 5.204793818316664 1.9915966280142936 3.3949301088159656 -1 0 0
118 1 6.646659917748908 3.1633906474562834 3.5574722140827926 -1 0 0
32 1 6.380209453665136 2.4354673889773544 4.490157383579731 0 0 -1
117 1 5.074512851119599 2.2430284930813538 4.362332222947474 -1 0 0
160 1 6.141573083186157 2.182381850851854 3.52961265000519 -1 0 -1
174 1 5.651559801124676 3.0335142220791003 4.044239425322814 0 -1 0
317 2 5.455484273809758 3.2142004516253126 4.8048931820108445 0 -1 -1
71 1 1.3356653705930346 0.7028875821245318 6.495346324476912 0 1 0
253 1 0.7641519424277251 1.3447679342337366 5.539430830782481 0 0 0
277 1 1.138875319800421 0.2933461489821203 5.580613751509531 0 1 0
336 2 1.6461834170027114 1.484113963427481 6.454648120940817 0 1 0
205 1 0.2603921800698779 0.33016285605532575 6.058267096749424 0 0 -1
147 1 0.3465695655172702 1.1116651324228424 6.626739490756555 0 0 0
137 1 2.141129192803725 0.19212625997689814 6.131707628339786 0 0 0
92 1 3.1937192653943005 1.3710385415003392 6.373608325156918 0 0 -1
191 1 2.6979360039094202 0.2558188389091977 5.274607372110878 0 0 0
183 1 1.8377303740921167 1.071769501793174 5.624882707102731 0 0 0
234 1 2.820155364716103 1.3259625861210396 5.491034146610376 0 1 -1
331 2 2.742640244643324 0.726906038500172 6.163534817195734 1 1 0
204 1 4.2782305037546084 1.205659236913642 6.2720354524913065 0 0 -1
267 1 4.316923365177996 0.7422433693946974 5.21338096013322 0 1 -1
111 1 3.4582923927490654 0.4115452701355738 5.893558052906694 -1 0 0
33 1 3.808512866182659 1.6245740479624515 5.436217688769341 1 0 -1
145 1 4.848903946585924 1.4887745067560625 5.448357597794234 0 0 -1
102 1 6.445997179057277 1.6570030870082078 5.155154668927616 0 0 -1
252 1 5.338870013488947 1.4061920462760948 6.399803040163152 -1 1 0
326 2 5.704791427912208 1.2509060562939802 5.472220320999786 0 1 2
281 1 6.177726756836583 0.9939102507620857 6.106579612456468 -1 1 0
106 1 5.346416174154797 0.5259143582683307 5.82486965520632 -1 0 0
270 1 1.1092671251991046 3.073285573058883 6.2458719753394885 0 1 -2
237 1 0.3785558588500604 2.4436456269707856 5.660129298973584 1 0 -1
75 1 1.3136335057424984 2.1157668205638913 5.878026899295429 0 0 -1
356 2 1.3037945856084563 2.656613071108624 5.240146035000284 0 1 0
8 1 0.47362718142927557 2.1789329097409773 6.659926047692888 0 -1 -1
298 2 3.0721001104382912 2.1190304397829474 5.364216770493692 -1 0 0
254 1 2.661220869699734 2.989557503288587 5.0463018793339645 -1 1 -1
36 1 2.25057022159715 1.9103002600244998 6.06944419624205 0 1 -1
50 1 2.0027077282993915 2.914144762618781 5.834121386745113 0 0 -2
313 2 2.849430504621776 2.9201098264164806 5.838539436000043 0 0 0
66 1 2.0275629519958382 2.13899762847792 5.050293308269526 -1 0 -1
38 1 3.3444287217638498 2.3192078653566766 6.123905037409686 0 0 -1
202 1 2.69693860687528 2.934326952488951 6.683682293597793 0 0 1
285 1 3.6256812369734237 3.3018199459339943 5.9600567612248705 0 0 0
115 1 3.604547729834764 2.8025093820648417 5.088450921342932 0 0 -1
16 1 4.320091972124716 2.5550558289928054 5.742381361814096 -1 -1 -1
349 2 4.785011704824955 2.00196467241553 6.18583996713422 0 0 1
7 1 4.139167483499383 2.1896244735775245 6.617127225429659 -1 0 -1
179 1 4.648072132689132 3.202031880541081 6.611659737543987 0 0 0
245 1 5.202602210094184 2.5023485496463014 5.313108639466517 0 1 0
103 1 6.371892831930817 2.7023802010787725 6.441573550948666 -1 1 0
338 2 6.6822204944047545 1.7479127704013815 6.12694277764302 -1 0 0
171 1 5.5973070525265545 3.2394429088644787 6.093975380027706 1 0 -1
214 1 5.93676639726381 2.0504095689549646 5.8245448053966316 0 0 -1
322 2 6.203723071714213 2.7950114436577147 5.4878100163545565 -1 0 -1
169 1 5.325261670939757 2.3577677004569217 6.665833631394807 0 0 0
5 1 0.3387114449888163 3.9909856027812576 1.0414900954971653 -1 0 -1
279 1 1.5341431744937482 3.5883431703444675 1.3249674542430514 0 0 0
339 2 1.0220381661214537 4.056368647758446 0.35632881562929675 0 1 2
241 1 0.6007598599323015 4.866492852493842 0.4911049352328326 0 0 0
165 1 0.363468932828841 3.519469766661338 0.10498090538663592 1 -1 1
113 1 1.7283074736105086 4.3657397839191585 0.6275914417711819 0 0 0
164 1 1.8841595769171569 3.417225448821984 0.17113086502319103 1 0 1
133 1 2.6533401066333013 3.9223700855717496 0.9471743159592245 0 0 -1
187 1 2.159211825806022 4.69259864284057 1.5992575497126464 1 -1 1
78 1 3.3356006537512224 3.903516083313036 0.15235060936340475 0 -1 0
22 1 2.4839855563057043 4.366460514675591 0.0053523150794845264 0 -1 0
316 2 3.390067172885696 3.7739179991551466 1.5384505974031066 0 0 1
265 1 4.594522863967341 4.368389523411986 0.15766238625209236 0 0 0
37 1 3.4550571105976795 4.508015441328239 1.0225269888670365 0 1 0
308 2 3.3686757897403004 4.8173859688523475 0.13529527625532678 0 0 0
11 1 4.2353996179946565 3.607131822285541 0.8370679599664923 0 -1 0
300 2 4.961447495139577 4.291654471774232 0.9598165024885846 -1 -1 1
151 1 4.984879503765293 3.6336907320023646 1.5440304617967495 -1 0 1
229 1 6.484118608149496 5.004550716885041 1.1733621613398055 0 0 0
320 2 6.411216510577938 4.56316148108299 0.4125311777398495 0 0 0
233 1 5.623462512687599 4.687741806283701 0.4954766542916821 0 0 -1
144 1 5.899886669965835 4.000077976267424 1.1714330998743567 -1 -1 1
307 2 6.437482365849543 3.411500768642368 1.5896267753655535 0 0 0
30 1 5.291566860198646 3.687558935463215 0.38526240836800824 0 -1 0
242 1 5.424539571800728 4.766406235455653 1.616827177425258 -1 0 0
346 2 0.5828347788962389 5.116832031715569 1.3283559716863869 1 0 1
303 2 1.1692851090021603 5.709529279899931 0.44535205812837797 1 0 1
65 1 1.4410528131257754 5.289431516802098 1.1608647432038859 0 -1 0
201 1 0.3964346438944817 5.775406505877925 0.7819269683414023 0 -1 1
296 2 0.7019711099026165 6.485430271512506 1.1080261709641026 0 -1 1
56 1 1.5529392113582394 6.313535418134576 1.0130902333364498 1 -1 1
212 1 0.3916766505300614 6.648009662659832 0.3279148569412871 1 0 1
57 1 2.2282924336436287 6.081803541971187 0.18858658352880026 0 -1 -1
29 1 2.532684819634282 5.047237033067498 0.7274055893588122 1 0 1
14 1 2.34325720192018 6.547824901098821 1.5638147051406073 1 -1 -1
332 2 2.175926103294192 5.746053194013268 1.0480149171102984 0 0 2
24 1 2.975678858944345 6.1421335801806825 0.9135359875420496 0 0 -1
9 1 2.8176738966879564 5.432742417553064 1.5804419387138473 0 -1 0
6 1 3.5701962189670247 6.307763750919691 0.019740269921881343 0 -1 0
255 1 4.705931857786759 5.342389645272918 0.6204231519505702 0 0 0
301 2 3.917586650719427 5.207014274282214 1.622292446323884 0 0 0
109 1 3.764334235773341 5.5054691781405465 0.8037192050873615 0 0 1
244 1 4.309511767626679 6.3604448716466795 0.7639916590662688 0 0 0
58 1 4.799075825157518 6.236859330535161 1.673551684832211 0 -1 -2
297 2 4.399393621626652 5.900810201054076 0.022451584887870777 0 -1 1
350 2 4.8482566311967705 5.356544985287732 1.4324735218842712 0 -1 0
309 2 6.18708372509864 6.1716290991307154 0.6340816710739118 0 0 0
55 1 5.556297497399203 5.700023736789934 1.0422016053923373 0 0 1
208 1 5.1522894865997415 6.237864185383863 0.22901062010525053 0 0 0
26 1 6.422867768620156 5.334174628024707 0.055224011658816075 -1 -1 0
41 1 1.0834086647175107 4.427857289239506 1.684222551413308 0 -1 0
302 2 1.028689250790382 3.6650577072851918 2.094772148284316 0 0 0
220 1 0.8901518003414101 4.374448531006886 2.646434856340919 -1 0 -1
276 1 0.06083658553009302 3.9710431929511256 3.064055635029185 0 0 0
31 1 0.03277973934189982 4.233350093917574 1.9523966969958708 1 -1 0
318 2 1.5481921625872306 4.8830197250410565 2.1988107257331584 0 0 0
197 1 0.12035035401720663 4.966926289921665 3.1229640736729043 1 0 0
288 1 2.6873281773111968 3.367005755824738 1.7833661533251581 0 0 0
135 1 1.801038574326407 3.979066050569238 2.2982249400597095 0 0 0
283 1 2.876069656458845 4.285450076935943 2.369344145253628 -1 0 0
140 1 2.0137504897070566 4.761888082715189 2.854559917363305 0 -1 0
227 1 1.6895323772566349 3.7494709212760124 3.242570763157572 1 0 0
194 1 3.7735093397546042 4.501446791436684 3.1439689905842703 0 0 -1
126 1 4.633560370685292 4.82012406760767 2.55582690794617 -1 0 0
228 1 4.387597621226443 3.828356483801276 2.5617104512966318 1 1 0
310 2 3.7093813792620773 4.3057880462484 2.238213181018945 0 0 0
223 1 4.3225223389179215 4.377156975823274 1.6843352076427816 -1 0 0
333 2 6.261812972375147 4.921789298680783 1.9616635110844063 0 -1 0
272 1 5.925981224529352 3.8598164688493775 2.3459428383194973 1 0 -1
299 2 5.274134012524712 4.125219684761324 2.7315266631513415 0 0 0
218 1 5.820143015783221 4.816661934348199 2.705531774639087 -1 0 -1
20 1 0.41427045018321856 5.144174437912354 2.128157191590286 1 0 -1
342 2 1.5075565998485865 6.4375280017870145 1.9071739672906578 0 -1 1
269 1 1.1835461602188229 5.455113716382009 2.790558814173486 0 0 -1
306 2 0.13714731583571493 6.564637503597066 2.1425390074845994 0 0 0
134 1 1.067922616714353 6.4707111900490695 2.637479152596283 0 -1 0
248 1 0.8543328052901524 6.050116461726506 1.7710107258861458 1 0 1
213 1 0.22570428190021669 6.02975283809937 2.996220628735756 0 0 0
305 2 2.042004697959059 5.628269735860291 3.0748552036131125 2 0 0
337 2 2.517080724858798 5.122484801832332 2.2673063768602955 1 1 1
131 1 1.8350091004326956 5.715145935334655 2.0181928414617363 1 -1 1
217 1 2.78120312972647 6.065533225366708 2.3359162363814177 0 0 0
80 1 4.362705903421653 5.848286159176884 2.4569422043980857 0 -1 -1
42 1 3.565440264284277 5.1587257103043 2.3643798482584204 1 0 -2
85 1 3.61300188797852 6.0318304561191205 2.948306184208495 0 0 0
180 1 3.606204503520929 6.155800334179498 1.7946400949378065 0 0 0
99 1 5.39558815287101 5.5857818359606055 2.2366925888760076 1 -1 0
46 1 5.987265405689476 6.3329953325690935 2.58277408100058 -1 -1 -1
142 1 6.3302823581040855 5.8290845201682435 1.7713718726147782 -1 -1 0
321 2 5.607970861751632 6.380712747253602 1.800298005682193 0 0 0
360 2 6.333124504349217 5.447652023020117 2.6126488646074626 -1 0 2
148 1 5.099016763115193 5.66647065820109 3.1804931771859315 0 -1 0
351 2 5.043025508400306 6.376603608361788 2.703995390493559 -1 -1 1
91 1 0.9897791512131117 4.723611392759351 3.516068345226011 0 -1 -1
52 1 0.7475052189072472 3.9418757737156476 4.762941489415877 1 0 0
175 1 0.8693642544033932 3.532975223681471 3.8768195588874304 -1 0 0
116 1 0.07742014347917703 4.067140884194296 4.033799829202872 0 -1 0
284 1 1.77727303314209 4.28942911852372 4.399377285817977 1 -1 1
289 2 2.6256881414956155 4.730160711064408 4.148633880483879 -2 0 -1
72 1 2.6654510239817646 3.990739803006232 5.014494745515573 0 0 -1
170 1 2.787576582773595 4.167427259715602 3.414025041293483 1 0 0
193 1 3.454897916387387 4.510258459878146 4.221689161435864 0 -1 0
86 1 4.403805090133154 4.565925979344984 4.428760936643747 0 0 -1
156 1 3.3945648188307227 3.4367026457749783 4.374236980884922 -1 0 0
266 1 4.187468852996545 3.802066311625697 3.7493428646081455 -1 1 0
100 1 4.957623855350021 4.536492789781886 3.46292004394824 -1 0 0
319 2 5.929310281536047 4.864154724690406 3.7538551870858106 0 0 1
154 1 5.295215331795507 3.991015988122149 4.513207572470589 -1 -1 1
153 1 5.987612631917694 4.7026757504963825 4.651651031401635 0 -1 -1
119 1 6.256640593350317 3.4892247941016965 4.732748205675026 0 -1 0
10 1 5.819500810989625 3.9603638110958315 3.4826887582387 0 0 0
96 1 5.02995663025946 3.4454752877599875 3.391286616168003 0 -1 0
87 1 0.04887165730559858 5.107839233631982 4.201610793116471 0 0 1
181 1 0.8252106032689269 5.659173533979953 3.736672051175165 0 -1 0
89 1 1.4880721830870502 6.049248056525414 4.419355143596094 1 -1 0
40 1 0.944167616105399 5.022953981731713 4.619130214563775 1 -1 -1
122 1 0.36342868990718963 6.494613947684961 4.946993577983514 1 -1 -1
190 1 0.03388333444035137 6.415109990225297 3.892145946258628 0 -1 -1
345 2 0.4591011844121412 5.7837978414777025 4.564362053044056 1 1 0
97 1 0.9867767458839178 6.684583196776314 3.6879288493885527 1 -2 0
312 2 2.7941312385531116 5.947744410877487 3.456154117471315 0 -1 1
211 1 1.883023269366139 5.171013294197273 3.7537038080583343 0 -1 -1
184 1 2.6454086275482194 5.7770257444953454 4.2733997098973795 0 -1 0
34 1 1.9749935341306473 6.3541974929590905 3.3895476361768995 1 0 0
127 1 3.087617829892416 5.154399942453072 3.482137240150328 1 0 1
45 1 3.5486818561267346 6.335869974272587 3.948591473167428 0 -1 -1
84 1 3.5789499730271013 5.469250480966829 4.485839844323458 -1 0 0
138 1 4.617200903830139 5.833797149010319 4.422298429701114 0 -1 1
73 1 3.8138218628264005 6.408603340132235 5.009429686815223 0 -1 -1
81 1 4.262432018393593 5.289957327042333 3.6230611403774984 0 -1 0
282 1 4.462183158732753 6.358127076933057 3.426141746168993 0 0 1
324 2 5.3608708515336945 5.804176330752613 4.857273817255963 0 0 1
352 2 6.204684619023963 6.655254030417409 4.548792494042415 -1 -1 1
146 1 5.317948868621992 5.202561304687377 4.093978817855031 0 -1 0
182 1 6.156275732555979 5.848943754687437 4.563301796268112 -1 -1 0
222 1 6.128665375794321 5.70918434504099 3.5147226348495266 0 0 0
271 1 5.3346126700103085 6.518371990239984 4.221843459400253 0 -1 0
88 1 1.6017150510307663 3.621883803059604 5.285266945069473 0 0 -1
330 2 0.8299262080926901 3.6847113611620164 5.778088190558401 0 0 -1
13 1 1.339552461764728 4.055504860802643 6.335852005840211 1 0 -1
69 1 1.096277848120511 4.648735822334778 5.568644984777543 -1 0 -1
136 1 0.018226253386808722 3.4147627458942376 5.750055673722161 0 0 0
28 1 0.28707212790026476 4.4481009665214355 6.245224698845894 1 0 0
192 1 3.3242997625214676 4.507801098317835 6.0770630948457915 0 0 0
51 1 2.053374610352397 4.498899691438969 5.708498806168477 0 -1 0
209 1 2.5943079990684965 3.734285263141482 5.972778523872765 0 0 0
74 1 3.140574200844336 4.87995102783815 5.149048189267535 0 1 0
328 2 4.6603338016844 3.9992490352882695 5.040420629664377 -1 1 0
139 1 3.8022391818536696 4.014364594002246 5.25374976114912 -1 -1 0
199 1 4.802016415827284 3.4137394840820585 5.5690061705204785 -2 0 0
1 1 4.561533658373256 4.4127674474035885 5.793853022919548 -1 -1 -1
359 2 4.004788442030832 3.931642400731896 6.373743603797835 -1 1 0
44 1 6.671888614248962 4.3907271486430774 5.233511484234244 0 -1 -1
98 1 6.09955355691954 4.042224435111076 6.524244592298755 -1 1 0
341 2 5.0648706497552 3.960450690995943 6.2446319886309904 -1 0 0
355 2 6.059201291573901 4.76918349978872 5.786128878575025 -1 0 1
186 1 5.585438430430621 4.040759697173074 5.538796177519859 0 0 0
83 1 5.332752017156526 4.71528861435161 6.275507436664233 0 0 0
256 1 0.8209178080551625 5.38355157063374 6.347649383857546 0 -1 0
76 1 0.9910477971184332 5.846338755299438 5.437177498268995 0 -1 0
143 1 0.03137780198693672 5.365566551333579 5.288843420359529 0 -2 1
261 1 1.1563474011202028 6.333858346530775 6.420365511713601 1 0 -1
21 1 2.1441159794539937 5.264283229410306 5.031462159569462 0 0 -2
110 1 3.022277503905914 5.941416346923731 5.293943871162661 1 0 0
25 1 2.8596584236979137 5.414124957051876 6.315783249622822 0 -1 0
243 1 1.8219639294306254 5.402312343532572 6.0832277681258695 0 0 0
95 1 2.0102190491781706 6.1386877511580975 5.397269821247441 0 -1 0
353 2 2.896571456514007 6.349808976117441 6.146645608660342 0 0 0
278 1 4.220986440335021 5.281730532192186 5.221317340087731 0 0 0
203 1 4.830805216378484 6.516475327663558 5.142337738039064 0 0 0
286 1 4.141114067287885 5.148069205379763 6.466150205481457 0 0 0
114 1 4.517058825640876 6.63298029982427 6.108089832031018 -1 0 -1
268 1 3.9302820383321744 5.916919322230894 5.883297343106262 0 1 -2
62 1 4.869099300684239 5.62354086868105 5.9570135491614735 0 -1 -1
315 2 5.420697419775328 6.350089304355576 6.096018614938227 -2 -1 -1
70 1 6.050103958089973 6.6407460751206004 6.587328036262247 -1 -1 -1
216 1 5.9913938447470425 6.539128571462888 5.404324714724546 -1 -1 -1
159 1 5.834138258454102 5.622139603430892 5.842473519500531 -1 -1 0
2 1 5.209511608042119 5.042929417549621 5.246041774977852 -1 -1 -1
101 1 6.680162510584929 6.082954141810979 6.081039321387362 -1 0 0
311 2 5.589014204379088 5.503268671285139 6.626925711556238 -1 0 -1

Velocities

224 -0.4263745656532521 0.5224514716478642 1.4436419243765766
17 -0.2585126495141877 0.8340033991397837 1.3028316941777296
35 0.5318050861737145 -0.8809381297972266 -0.13246677336238616
172 1.381883808860458 -0.14922611178501183 -0.5969183626857942
120 -0.8188313718559 1.5173152116131245 -0.295220985363807
294 0.432082660084995 1.4180424235119315 -0.4950197272618343
94 -0.1290376976126769 0.19914808465364228 1.3638739129156392
39 0.5805722438029027 1.1986980705864207 -1.430278306752844
60 -2.4226044232273516 0.07221593086074433 -1.6937444308099747
150 0.7570715488610155 0.8484240834034774 -1.3282740951397272
247 -0.9717944271356989 0.7621698560783737 -0.4877465872848294
340 0.187289777097451 0.9128079922116048 -1.2840727656394026
61 -1.4830600728063066 0.3725744095974827 -0.27809672847880673
249 1.7883349985246 -0.49341106523645883 0.07007985522481351
240 -1.4686850292546212 0.8372919095548906 0.4864647090679861
129 1.3592517477661579 0.06906194560508508 0.5973745633507163
334 -0.19863572670980795 0.3026661989683845 0.31441995454788807
258 1.0392857794304857 1.4482509021064993 0.41241099690909294
257 0.21701827848610197 -0.03684852505812237 1.5956537847655727
259 -0.8575461623680543 0.490236771620488 -1.158976124973456
273 -0.48626985879954393 -0.5533594222818171 0.6533549566893468
125 -0.18809999099647717 1.0786719108607812 -0.03715559414346111
162 1.9408970889770991 1.6864712332876302 0.35679384200101505
195 0.5799096334418893 -0.7678160761897699 -0.2287672865406907
130 -2.45989656465268 -0.13734115131574176 -0.16195726839589053
246 1.0214875822555705 -0.38601855768731513 0.008968961594405953
27 0.3457102561768367 -0.30614829461554016 1.5819526786850144
348 1.4783540439099365 -1.2269301849500278 -0.12061595209340342
263 -1.1829568120617744 -0.19517451053516 1.8897073353423623
189 -0.46275768522329946 -2.952887853043449 0.14248331718496612
90 1.7459915381683642 0.6609541367541262 -0.5533053131689433
54 0.019839489477961863 -0.05471080966544855 0.7259313639651805
177 0.35548221741572833 0.222715773143936 0.22659284176376668
59 0.2301788364695658 -0.6955481907072903 -0.19053357227224482
291 -0.392534454084282 0.006811037953392552 -0.10842292871299512
121 -2.751670092835999 -2.0789232731986313 1.4205026877238656
67 -0.5559049191366665 0.8256807296287206 -1.2023062713333819
104 0.10075201557037626 -1.9153296926596082 -0.8070296301453472
274 0.03359501730856553 -1.2323099283616525 0.7561987155170344
304 -1.8619141071696268 0.655904668928474 0.24010749208758145
287 0.028450767474528522 -0.17666880361142953 -0.3008811573431454
158 0.44664988020142354 1.1815805167830427 -0.22353540495554994
18 -1.0625494150943238 -0.7010895769297038 1.699295236186409
167 -2.0832591344057234 -0.32137695116695647 1.4135934608083813
93 -0.187258663878846 -0.19188066500519882 0.5719002647552571
329 1.0469751609035207 0.8972172792565802 0.6507478756741455
207 -1.377446033088102 0.4321175615730378 -1.722697528750236
178 -1.1820119152388884 1.9743445361320242 -0.6004576114999086
225 0.6620504289945781 -0.5040346422050206 -0.35940737356875135
152 -0.501702786480174 1.940735322611461 -1.2025202322456106
357 -0.7111644423058028 -0.24374656513904097 0.1247249597462262
275 0.050968262563953946 0.5731634520309092 0.5653816480438696
231 -0.06529144899937642 1.7479496151842204 0.5804385412571056
354 -1.057988365394824 -0.7461050712206508 0.3750940286896574
250 0.2075067789395305 0.06152016860701388 1.181386601488205
219 0.14992553085646032 -0.008404411279643828 0.1863440417987794
344 0.8001689062512032 0.09899069051575782 1.814354244578932
185 -0.46435596407661833 1.0153758511712776 -0.753652885286399
196 0.26104544744548164 0.681351589099333 0.1784272580882768
293 -0.9762804193255916 0.7930649607964947 1.4638314979564575
198 -0.34427365763071865 -0.894711608004637 0.08378269663559677
124 0.6203846740311817 -1.116690362036819 1.4754483751771088
230 0.5598267723309556 0.33813618939419193 -1.4072623191241582
123 -1.0193124918419303 0.7814164680411931 0.7784621515722921
292 0.22546015172886605 -0.9015557757963447 -1.7167475281923752
108 -0.7941703640661019 -1.2375649398158413 0.6200438266778324
347 0.8578827440045715 0.5718271662690961 -0.41493213048984023
262 -0.3390064472269639 -0.37743620706429826 1.1546791851838225
112 0.8133759044721212 0.5125108490462241 0.6544523718577195
251 -0.1954615578767155 -0.7312041146160214 0.2717654106031626
141 -0.12534864216672598 -1.2705051367700078 0.3899073978969762
236 0.35295418321685634 0.46437627773687357 -2.1674921284521655
200 0.11083544577994885 -0.4406130306084963 0.3389037356241426
226 -0.05908915762327665 0.21981480245672996 0.2553659461539346
47 0.6174208510931923 -0.3219320980311301 -0.5452002865642094
107 -0.4279903284273807 -0.11482440905492121 -0.6045561094242747
188 0.15745453081246477 -0.9834494927957005 2.709938468648795
290 -0.23763243179530819 0.8199936837629438 1.2618545509023906
235 1.9324697232699117 -0.41866304898166484 0.16700406555441896
163 1.0386849823220166 0.6196791105462984 0.3406168779253086
239 0.6601274932193977 0.81770420467191 1.1939034343229842
323 0.32458945822187435 -0.9313816372316948 0.6738084940223332
64 -1.4094873607775804 -0.2946224522432759 1.0296640640869434
132 0.36202209600351937 -0.7452763104994641 0.5932981620481547